# Residuals   
# Time        	Ux            	Uy            	Uz            	p             
0             	N/A	N/A
1             	1.000000e+00	1.000000e+00	1.000000e+00	1.000000e+00
2             	7.155273e-02	1.825030e-01	1.844652e-01	8.503504e-03
3             	3.713800e-01	3.386134e-01	3.218598e-01	3.585370e-05
4             	2.510448e-01	2.036706e-01	2.037696e-01	3.062106e-05
5             	6.162427e-02	1.187857e-01	1.137478e-01	2.016542e-04
6             	1.853613e-01	1.449640e-01	1.380579e-01	5.532135e-05
7             	1.845267e-01	1.499461e-01	1.533750e-01	4.878950e-05
8             	6.117932e-02	1.023621e-01	1.035881e-01	5.394676e-04
9             	1.272043e-01	1.003613e-01	9.753079e-02	7.271574e-05
10            	9.209195e-02	9.565190e-02	9.490670e-02	7.056510e-05
11            	4.372173e-02	7.513826e-02	7.648375e-02	2.717250e-04
12            	6.802020e-02	7.675293e-02	7.498556e-02	1.380444e-04
13            	6.003768e-02	7.356452e-02	7.345990e-02	1.237059e-04
14            	3.957807e-02	6.857571e-02	6.920968e-02	1.179805e-02
15            	4.613647e-02	7.328616e-02	7.481986e-02	1.079448e-04
16            	3.993210e-02	7.381436e-02	7.504969e-02	9.153183e-05
17            	3.236979e-02	6.842578e-02	6.684014e-02	3.113797e-04
18            	3.399852e-02	6.490177e-02	6.118132e-02	1.818055e-03
19            	3.100561e-02	6.720124e-02	6.344082e-02	1.644957e-03
20            	2.803644e-02	7.168996e-02	6.852511e-02	1.920676e-03
21            	2.662643e-02	7.258366e-02	6.890548e-02	5.799482e-04
22            	2.732186e-02	7.015032e-02	6.534045e-02	4.968173e-04
23            	2.719443e-02	6.885852e-02	6.237253e-02	6.608362e-04
24            	2.512931e-02	6.963350e-02	6.269147e-02	1.511070e-03
25            	2.421366e-02	7.342281e-02	6.575211e-02	1.812785e-03
26            	2.343494e-02	7.578055e-02	6.763004e-02	1.103264e-03
27            	2.262045e-02	7.419608e-02	6.588004e-02	6.958838e-04
28            	2.304801e-02	7.250759e-02	6.424241e-02	5.433646e-04
29            	2.273206e-02	7.227034e-02	6.412208e-02	5.479595e-04
30            	2.151977e-02	7.342658e-02	6.474894e-02	6.109765e-04
31            	2.083954e-02	7.436413e-02	6.458760e-02	7.039788e-04
32            	2.059918e-02	7.449227e-02	6.482566e-02	6.573813e-04
33            	2.050305e-02	7.392604e-02	6.511306e-02	5.624396e-04
34            	2.000495e-02	7.416879e-02	6.512445e-02	4.856982e-04
35            	1.944025e-02	7.557040e-02	6.568918e-02	4.619765e-04
36            	1.894716e-02	7.655861e-02	6.633979e-02	4.442543e-04
37            	1.878191e-02	7.676275e-02	6.664478e-02	4.359575e-04
38            	1.879840e-02	7.653158e-02	6.686082e-02	4.490162e-04
39            	1.863836e-02	7.701867e-02	6.727643e-02	4.389674e-04
40            	1.824252e-02	7.858836e-02	6.813669e-02	4.255226e-04
41            	1.785346e-02	8.013527e-02	6.899723e-02	4.140533e-04
42            	1.787053e-02	8.073017e-02	6.945693e-02	3.987034e-04
43            	1.830106e-02	8.031572e-02	6.938638e-02	3.815973e-04
44            	1.871507e-02	7.882456e-02	6.836045e-02	3.651974e-04
45            	1.848241e-02	7.871050e-02	6.850791e-02	3.491546e-04
46            	1.812577e-02	7.941466e-02	6.902247e-02	3.446284e-04
47            	1.794320e-02	7.921692e-02	6.917014e-02	3.372954e-04
48            	1.803641e-02	7.795046e-02	6.935124e-02	3.197077e-04
49            	1.802576e-02	7.676877e-02	6.912526e-02	2.960287e-04
50            	1.772642e-02	7.798850e-02	6.754077e-02	2.728536e-04
51            	1.723989e-02	7.753974e-02	6.746902e-02	2.497688e-04
52            	1.712113e-02	7.614649e-02	6.693658e-02	2.307871e-04
53            	1.724916e-02	7.490612e-02	6.493058e-02	2.198284e-04
54            	1.721967e-02	7.431734e-02	6.298354e-02	2.117062e-04
55            	1.683559e-02	7.412382e-02	6.301184e-02	2.029141e-04
56            	1.637806e-02	7.401404e-02	6.261932e-02	1.943819e-04
57            	1.604817e-02	7.338786e-02	6.200769e-02	1.890372e-04
58            	1.594605e-02	7.256162e-02	6.118727e-02	1.840949e-04
59            	1.583392e-02	7.151970e-02	6.128358e-02	1.764783e-04
60            	1.558832e-02	7.081452e-02	6.144483e-02	1.698723e-04
61            	1.525398e-02	7.017950e-02	6.115088e-02	1.653130e-04
62            	1.491087e-02	6.943593e-02	6.035171e-02	1.588009e-04
63            	1.463414e-02	6.985890e-02	5.898823e-02	1.471638e-04
64            	1.440083e-02	6.996665e-02	5.775069e-02	1.349170e-04
65            	1.409117e-02	6.859002e-02	5.698690e-02	1.247314e-04
66            	1.364768e-02	6.856210e-02	5.624494e-02	1.152530e-04
67            	1.316728e-02	6.880693e-02	5.528785e-02	1.061721e-04
68            	1.284049e-02	6.774830e-02	5.445938e-02	9.893487e-05
69            	1.255187e-02	6.771300e-02	5.350825e-02	9.263886e-05
70            	1.222248e-02	6.749392e-02	5.268119e-02	8.767131e-05
71            	1.183971e-02	6.564881e-02	5.198313e-02	8.419042e-05
72            	1.145456e-02	6.402037e-02	5.011123e-02	8.050699e-05
73            	1.109540e-02	6.259580e-02	4.930170e-02	7.691530e-05
74            	1.074059e-02	6.273355e-02	4.866927e-02	7.405151e-05
75            	1.040836e-02	6.145638e-02	4.701255e-02	7.109081e-05
76            	1.002151e-02	6.085304e-02	4.616052e-02	6.901740e-05
77            	9.649131e-03	5.879018e-02	4.549656e-02	6.798093e-05
78            	9.304533e-03	5.815620e-02	4.457445e-02	6.840231e-05
79            	9.032207e-03	5.654599e-02	4.343969e-02	6.870161e-05
80            	8.769963e-03	5.611456e-02	4.204248e-02	6.837828e-05
81            	8.494410e-03	5.567119e-02	4.080829e-02	6.747023e-05
82            	8.217563e-03	5.505789e-02	3.980362e-02	6.524831e-05
83            	7.975699e-03	5.432438e-02	3.898695e-02	6.335001e-05
84            	7.774048e-03	5.367630e-02	3.829013e-02	6.138619e-05
85            	7.568948e-03	5.309526e-02	3.669806e-02	5.932065e-05
86            	7.307380e-03	5.243353e-02	3.601037e-02	5.769342e-05
87            	7.026354e-03	5.157572e-02	3.550897e-02	5.607001e-05
88            	6.754967e-03	5.062292e-02	3.489976e-02	5.422866e-05
89            	6.513887e-03	4.963423e-02	3.407646e-02	5.293067e-05
90            	6.318545e-03	4.865669e-02	3.241370e-02	5.096057e-05
91            	6.084855e-03	4.751973e-02	3.157339e-02	4.847707e-05
92            	5.830903e-03	4.641448e-02	3.090444e-02	4.612246e-05
93            	5.612808e-03	4.537241e-02	2.946376e-02	4.392891e-05
94            	5.426737e-03	4.418901e-02	2.798105e-02	4.177909e-05
95            	5.251998e-03	4.279889e-02	2.665797e-02	3.957185e-05
96            	5.068795e-03	4.132281e-02	2.558007e-02	3.779097e-05
97            	4.877683e-03	3.979756e-02	2.462672e-02	3.662177e-05
98            	4.707898e-03	3.844625e-02	2.364709e-02	3.613379e-05
99            	4.568561e-03	3.728273e-02	2.272908e-02	3.590854e-05
100           	4.433508e-03	3.613023e-02	2.182092e-02	3.758721e-05
101           	4.295300e-03	3.499682e-02	2.096332e-02	3.891737e-05
102           	4.155751e-03	3.400549e-02	2.019811e-02	3.947961e-05
103           	4.018573e-03	3.312640e-02	1.951962e-02	3.872093e-05
104           	3.889146e-03	3.220144e-02	1.892918e-02	3.767379e-05
105           	3.772490e-03	3.115108e-02	1.836654e-02	3.717587e-05
106           	3.669884e-03	3.011425e-02	1.779385e-02	3.688183e-05
107           	3.578027e-03	2.917282e-02	1.728968e-02	3.589926e-05
108           	3.481848e-03	2.832652e-02	1.682375e-02	3.503190e-05
109           	3.386629e-03	2.758653e-02	1.639810e-02	3.465319e-05
110           	3.312285e-03	2.632178e-02	1.606695e-02	3.416096e-05
111           	3.247843e-03	2.563627e-02	1.565606e-02	3.373949e-05
112           	3.192050e-03	2.515341e-02	1.521629e-02	3.352493e-05
113           	3.151918e-03	2.421348e-02	1.488385e-02	3.321840e-05
114           	3.103626e-03	2.366546e-02	1.455850e-02	3.276137e-05
115           	3.060449e-03	2.318532e-02	1.428936e-02	3.214108e-05
116           	3.036538e-03	2.229777e-02	1.409846e-02	3.122680e-05
117           	3.009651e-03	2.192908e-02	1.386351e-02	3.034871e-05
118           	2.985384e-03	2.180083e-02	1.362742e-02	2.988134e-05
119           	2.963346e-03	2.173315e-02	1.344023e-02	2.971803e-05
120           	2.941098e-03	2.158125e-02	1.333421e-02	2.943128e-05
121           	2.910531e-03	2.131874e-02	1.353373e-02	2.893561e-05
122           	2.884849e-03	2.108293e-02	1.369951e-02	2.866710e-05
123           	2.861088e-03	2.084796e-02	1.370481e-02	2.863989e-05
124           	2.837002e-03	2.057811e-02	1.358740e-02	2.882509e-05
125           	2.812539e-03	2.029300e-02	1.343497e-02	2.882599e-05
126           	2.789554e-03	2.004889e-02	1.331730e-02	2.862778e-05
127           	2.771759e-03	1.982103e-02	1.324344e-02	2.821760e-05
128           	2.759508e-03	1.960897e-02	1.317741e-02	2.751064e-05
129           	2.753634e-03	1.940242e-02	1.311254e-02	2.679259e-05
130           	2.747395e-03	1.916396e-02	1.307720e-02	2.585870e-05
131           	2.741119e-03	1.891552e-02	1.306275e-02	2.488963e-05
132           	2.733108e-03	1.866061e-02	1.307068e-02	2.390343e-05
133           	2.722863e-03	1.841383e-02	1.307665e-02	2.318352e-05
134           	2.707301e-03	1.818047e-02	1.306666e-02	2.259663e-05
135           	2.686365e-03	1.798345e-02	1.305048e-02	2.203960e-05
136           	2.661955e-03	1.779116e-02	1.301495e-02	2.149378e-05
137           	2.632307e-03	1.759774e-02	1.296461e-02	2.106651e-05
138           	2.596576e-03	1.740767e-02	1.289395e-02	2.060132e-05
139           	2.556237e-03	1.718777e-02	1.280355e-02	2.013436e-05
140           	2.509870e-03	1.692784e-02	1.268733e-02	1.962202e-05
141           	2.457320e-03	1.662304e-02	1.253828e-02	1.900801e-05
142           	2.399799e-03	1.625877e-02	1.236856e-02	1.830860e-05
143           	2.335973e-03	1.583126e-02	1.216303e-02	1.761391e-05
144           	2.268149e-03	1.534195e-02	1.190374e-02	1.696879e-05
145           	2.196513e-03	1.478920e-02	1.159637e-02	1.629752e-05
146           	2.123635e-03	1.421654e-02	1.123000e-02	1.559990e-05
147           	2.052249e-03	1.367561e-02	1.081308e-02	1.488325e-05
148           	1.982451e-03	1.320483e-02	1.035136e-02	1.417149e-05
149           	1.916062e-03	1.280792e-02	9.898990e-03	1.341591e-05
150           	1.859015e-03	1.248071e-02	9.481371e-03	1.262247e-05
151           	1.807491e-03	1.215499e-02	9.127858e-03	1.185609e-05
152           	1.761520e-03	1.178265e-02	8.877951e-03	1.119235e-05
153           	1.684361e-03	1.141200e-02	8.666417e-03	1.065207e-05
154           	1.603919e-03	1.097974e-02	8.507451e-03	1.015617e-05
155           	1.525662e-03	1.049127e-02	8.296778e-03	9.716858e-06
156           	1.461257e-03	9.764503e-03	8.087561e-03	9.259083e-06
157           	1.394944e-03	9.130815e-03	7.784895e-03	8.949594e-06
158           	1.338431e-03	8.774911e-03	7.719558e-03	8.391838e-06
159           	1.272280e-03	8.386914e-03	7.402502e-03	8.017070e-06
160           	1.204023e-03	8.086211e-03	7.178826e-03	7.649616e-06
161           	1.146856e-03	7.746654e-03	6.975095e-03	7.250066e-06
162           	1.101685e-03	7.388963e-03	6.721023e-03	6.840883e-06
163           	1.061682e-03	7.068332e-03	6.386492e-03	6.469740e-06
164           	1.019243e-03	6.792303e-03	6.027244e-03	6.131091e-06
165           	9.751208e-04	6.523819e-03	5.694688e-03	5.823539e-06
166           	9.308979e-04	6.250730e-03	5.411125e-03	5.610961e-06
167           	8.917687e-04	6.026901e-03	5.030924e-03	5.379454e-06
168           	8.539312e-04	5.796852e-03	4.689110e-03	5.105350e-06
169           	8.173413e-04	5.530082e-03	4.417890e-03	4.832805e-06
170           	7.819949e-04	5.237336e-03	4.179524e-03	4.581528e-06
171           	7.491584e-04	4.943162e-03	3.920456e-03	4.346144e-06
172           	7.187418e-04	4.671411e-03	3.635790e-03	4.136067e-06
173           	6.905397e-04	4.418281e-03	3.362384e-03	3.938637e-06
174           	6.638430e-04	4.176307e-03	3.129887e-03	3.752781e-06
175           	6.386840e-04	3.941907e-03	2.944317e-03	3.571016e-06
176           	6.157686e-04	3.696057e-03	2.757340e-03	3.409629e-06
177           	5.945862e-04	3.489387e-03	2.606009e-03	3.258926e-06
178           	5.767695e-04	3.311202e-03	2.472471e-03	3.116247e-06
179           	5.619411e-04	3.138864e-03	2.352034e-03	2.978124e-06
180           	5.485094e-04	2.972793e-03	2.249203e-03	2.844961e-06
181           	5.351412e-04	2.826438e-03	2.165802e-03	2.716823e-06
182           	5.214848e-04	2.696116e-03	2.094464e-03	2.595012e-06
183           	5.078406e-04	2.578654e-03	2.023392e-03	2.481495e-06
184           	4.947766e-04	2.479633e-03	1.960139e-03	2.375909e-06
185           	4.827173e-04	2.394794e-03	1.903034e-03	2.282503e-06
186           	4.718965e-04	2.308289e-03	1.845594e-03	2.209543e-06
187           	4.614153e-04	2.212898e-03	1.783712e-03	2.161004e-06
188           	4.503326e-04	2.122485e-03	1.719350e-03	2.120721e-06
189           	4.385697e-04	2.040378e-03	1.657848e-03	2.077432e-06
190           	4.267975e-04	1.962698e-03	1.605490e-03	2.027451e-06
191           	4.152354e-04	1.886827e-03	1.559576e-03	1.964402e-06
192           	4.040155e-04	1.815194e-03	1.514392e-03	1.889991e-06
193           	3.928253e-04	1.747225e-03	1.462683e-03	1.812409e-06
194           	3.815702e-04	1.684662e-03	1.403606e-03	1.733007e-06
195           	3.703736e-04	1.626145e-03	1.343397e-03	1.658668e-06
196           	3.594099e-04	1.570446e-03	1.286701e-03	1.585497e-06
197           	3.488618e-04	1.517366e-03	1.236203e-03	1.516771e-06
198           	3.388528e-04	1.465176e-03	1.192269e-03	1.452113e-06
199           	3.294169e-04	1.412629e-03	1.152872e-03	1.391718e-06
200           	3.203261e-04	1.362360e-03	1.116923e-03	1.334389e-06
201           	3.115620e-04	1.316206e-03	1.083297e-03	1.282570e-06
202           	3.032204e-04	1.274681e-03	1.051625e-03	1.235551e-06
203           	2.952291e-04	1.236570e-03	1.021871e-03	1.193365e-06
204           	2.874901e-04	1.198183e-03	9.953478e-04	1.155568e-06
205           	2.800450e-04	1.159191e-03	9.711739e-04	1.121464e-06
206           	2.728150e-04	1.120227e-03	9.474035e-04	1.093109e-06
207           	2.658454e-04	1.083844e-03	9.228897e-04	1.069232e-06
208           	2.590441e-04	1.050759e-03	8.974031e-04	1.049644e-06
209           	2.524670e-04	1.019716e-03	8.715877e-04	1.034154e-06
210           	2.461168e-04	9.902560e-04	8.456932e-04	1.020524e-06
211           	2.399175e-04	9.630520e-04	8.207838e-04	1.010009e-06
212           	2.339490e-04	9.375722e-04	7.972680e-04	1.000651e-06
213           	2.281799e-04	9.143207e-04	7.761372e-04	9.925855e-07
214           	2.226498e-04	8.932185e-04	7.568378e-04	9.851423e-07
215           	2.173901e-04	8.738626e-04	7.390363e-04	9.764480e-07
216           	2.124000e-04	8.553382e-04	7.220713e-04	9.670641e-07
217           	2.076353e-04	8.369230e-04	7.055961e-04	9.566133e-07
218           	2.030919e-04	8.191385e-04	6.898248e-04	9.453764e-07
219           	1.987606e-04	8.026762e-04	6.754092e-04	9.335874e-07
220           	1.946258e-04	7.867417e-04	6.626385e-04	9.223757e-07
221           	1.906701e-04	7.713795e-04	6.515627e-04	9.121493e-07
222           	1.868162e-04	7.562108e-04	6.418248e-04	9.023340e-07
223           	1.829939e-04	7.407706e-04	6.328858e-04	8.919102e-07
224           	1.792093e-04	7.248334e-04	6.242985e-04	8.815112e-07
225           	1.754818e-04	7.084629e-04	6.157808e-04	8.692361e-07
226           	1.717859e-04	6.920215e-04	6.071170e-04	8.572829e-07
227           	1.681294e-04	6.755572e-04	5.981972e-04	8.448962e-07
228           	1.644990e-04	6.591809e-04	5.887742e-04	8.328049e-07
229           	1.603735e-04	6.342613e-04	5.641969e-04	8.505547e-07
230           	1.572300e-04	6.281940e-04	5.658225e-04	8.243138e-07
231           	1.539706e-04	6.202107e-04	5.660444e-04	7.995729e-07
232           	1.498855e-04	5.956075e-04	5.405073e-04	8.039338e-07
233           	1.466806e-04	5.866967e-04	5.395288e-04	7.780580e-07
234           	1.427270e-04	5.661246e-04	5.153182e-04	7.900313e-07
235           	1.397386e-04	5.628155e-04	5.181044e-04	7.590815e-07
236           	1.359632e-04	5.446655e-04	4.952658e-04	7.680462e-07
237           	1.330745e-04	5.424208e-04	4.989936e-04	7.368056e-07
238           	1.294059e-04	5.239236e-04	4.750855e-04	7.480263e-07
239           	1.260281e-04	5.092212e-04	4.550772e-04	7.566748e-07
240           	1.235774e-04	5.118659e-04	4.669137e-04	7.189697e-07
241           	1.202697e-04	4.958853e-04	4.459474e-04	7.295910e-07
242           	1.172492e-04	4.818736e-04	4.275559e-04	7.322236e-07
243           	1.150743e-04	4.827200e-04	4.404496e-04	6.959293e-07
244           	1.120901e-04	4.663159e-04	4.190952e-04	7.085639e-07
245           	1.094066e-04	4.522707e-04	4.000931e-04	7.116803e-07
246           	1.075271e-04	4.525298e-04	4.090281e-04	6.773496e-07
247           	1.048988e-04	4.372311e-04	3.890823e-04	6.886488e-07
248           	1.025473e-04	4.240633e-04	3.718567e-04	6.927947e-07
249           	1.010791e-04	4.246671e-04	3.812675e-04	6.582078e-07
250           	9.876058e-05	4.098085e-04	3.631275e-04	6.701556e-07
251           	9.669169e-05	3.970468e-04	3.474710e-04	6.744318e-07
252           	9.554292e-05	3.975377e-04	3.575829e-04	6.407385e-07
253           	9.343123e-05	3.833943e-04	3.410286e-04	6.535693e-07
254           	9.152272e-05	3.715279e-04	3.266812e-04	6.575023e-07
255           	8.976915e-05	3.627562e-04	3.166889e-04	6.660913e-07
256           	8.889138e-05	3.690989e-04	3.337164e-04	6.210693e-07
257           	8.693910e-05	3.556816e-04	3.198506e-04	6.311260e-07
258           	8.514490e-05	3.435247e-04	3.060184e-04	6.291460e-07
259           	8.349059e-05	3.342045e-04	2.951766e-04	6.355681e-07
260           	8.197902e-05	3.276305e-04	2.877315e-04	6.414394e-07
261           	8.130169e-05	3.366205e-04	3.046338e-04	5.936668e-07
262           	7.949497e-05	3.235314e-04	2.919370e-04	6.033135e-07
263           	7.783436e-05	3.115957e-04	2.787855e-04	5.999773e-07
264           	7.629095e-05	3.028313e-04	2.682193e-04	6.056908e-07
265           	7.486757e-05	2.972218e-04	2.608251e-04	6.127750e-07
266           	7.353332e-05	2.939021e-04	2.566578e-04	6.139371e-07
267           	7.293368e-05	3.071275e-04	2.761492e-04	5.652034e-07
268           	7.127109e-05	2.935291e-04	2.647542e-04	5.757817e-07
269           	6.977508e-05	2.808130e-04	2.522001e-04	5.728540e-07
270           	6.837583e-05	2.715458e-04	2.415743e-04	5.781314e-07
271           	6.706846e-05	2.657647e-04	2.335814e-04	5.857302e-07
272           	6.584145e-05	2.629078e-04	2.285654e-04	5.889105e-07
273           	6.468723e-05	2.617039e-04	2.263412e-04	5.876570e-07
274           	6.359386e-05	2.603966e-04	2.257372e-04	5.844092e-07
275           	6.251865e-05	2.575098e-04	2.251260e-04	5.802329e-07
276           	6.144885e-05	2.527249e-04	2.232193e-04	5.755121e-07
277           	6.036769e-05	2.469192e-04	2.196973e-04	5.710038e-07
278           	5.927356e-05	2.410046e-04	2.149322e-04	5.666245e-07
279           	5.816028e-05	2.355500e-04	2.095302e-04	5.617878e-07
280           	5.705294e-05	2.309518e-04	2.040549e-04	5.565659e-07
281           	5.596666e-05	2.269991e-04	1.988131e-04	5.506316e-07
282           	5.490322e-05	2.233330e-04	1.939603e-04	5.452498e-07
283           	5.388088e-05	2.195349e-04	1.894815e-04	5.409009e-07
284           	5.290374e-05	2.154116e-04	1.852711e-04	5.373575e-07
285           	5.198080e-05	2.110818e-04	1.812453e-04	5.353220e-07
286           	5.110691e-05	2.068415e-04	1.772508e-04	5.339010e-07
287           	5.026811e-05	2.027789e-04	1.732903e-04	5.321530e-07
288           	4.945461e-05	1.989197e-04	1.694097e-04	5.303394e-07
289           	4.865892e-05	1.952923e-04	1.656823e-04	5.280970e-07
290           	4.787977e-05	1.916541e-04	1.621315e-04	5.253702e-07
291           	4.711580e-05	1.878785e-04	1.587930e-04	5.221908e-07
292           	4.637543e-05	1.840203e-04	1.556707e-04	5.188174e-07
293           	4.566312e-05	1.800417e-04	1.527420e-04	5.150436e-07
294           	4.498658e-05	1.761543e-04	1.499041e-04	5.111787e-07
295           	4.434029e-05	1.723480e-04	1.470476e-04	5.075746e-07
296           	4.374329e-05	1.687398e-04	1.441077e-04	5.038714e-07
297           	4.317840e-05	1.653176e-04	1.410258e-04	5.005847e-07
298           	4.264478e-05	1.620535e-04	1.378707e-04	4.974782e-07
299           	4.213281e-05	1.588149e-04	1.347289e-04	4.947853e-07
300           	4.163350e-05	1.555681e-04	1.316943e-04	4.927101e-07
301           	4.114280e-05	1.522431e-04	1.288423e-04	4.909073e-07
302           	4.065816e-05	1.488918e-04	1.262336e-04	4.888865e-07
303           	4.017922e-05	1.455575e-04	1.238482e-04	4.868665e-07
304           	3.970615e-05	1.422879e-04	1.216508e-04	4.846846e-07
305           	3.924831e-05	1.392054e-04	1.195723e-04	4.826423e-07
306           	3.880160e-05	1.362802e-04	1.175061e-04	4.804285e-07
307           	3.836509e-05	1.334933e-04	1.154272e-04	4.784185e-07
308           	3.794121e-05	1.308069e-04	1.133279e-04	4.762836e-07
309           	3.751995e-05	1.281309e-04	1.111906e-04	4.742033e-07
310           	3.709750e-05	1.254528e-04	1.090362e-04	4.723702e-07
311           	3.667819e-05	1.228370e-04	1.069030e-04	4.705988e-07
312           	3.626385e-05	1.202992e-04	1.047893e-04	4.688548e-07
313           	3.584900e-05	1.178952e-04	1.027367e-04	4.673589e-07
314           	3.543592e-05	1.156541e-04	1.007516e-04	4.659047e-07
315           	3.501880e-05	1.135343e-04	9.886611e-05	4.644998e-07
316           	3.460403e-05	1.115626e-04	9.708675e-05	4.629895e-07
317           	3.419433e-05	1.096947e-04	9.541745e-05	4.617156e-07
318           	3.378809e-05	1.078070e-04	9.382157e-05	4.605258e-07
319           	3.338451e-05	1.059452e-04	9.229731e-05	4.595139e-07
320           	3.298644e-05	1.040908e-04	9.078620e-05	4.581958e-07
321           	3.258631e-05	1.022031e-04	8.928425e-05	4.570461e-07
322           	3.218817e-05	1.003762e-04	8.780561e-05	4.558781e-07
323           	3.179014e-05	9.864155e-05	8.632353e-05	4.544267e-07
324           	3.139506e-05	9.696989e-05	8.483247e-05	4.525733e-07
325           	3.100136e-05	9.542483e-05	8.338141e-05	4.509202e-07
326           	3.060649e-05	9.396518e-05	8.196506e-05	4.493908e-07
327           	3.021518e-05	9.256092e-05	8.061035e-05	4.478398e-07
328           	2.982811e-05	9.121025e-05	7.929811e-05	4.463219e-07
329           	2.944194e-05	8.983363e-05	7.803614e-05	4.449517e-07
330           	2.905879e-05	8.843898e-05	7.681455e-05	4.437110e-07
331           	2.867933e-05	8.708311e-05	7.564689e-05	4.426858e-07
332           	2.830225e-05	8.571599e-05	7.448255e-05	4.414683e-07
333           	2.793291e-05	8.444166e-05	7.337926e-05	4.402861e-07
334           	2.756331e-05	8.319370e-05	7.229313e-05	4.391774e-07
335           	2.719750e-05	8.201750e-05	7.122006e-05	4.381975e-07
336           	2.683593e-05	8.088903e-05	7.019026e-05	4.368891e-07
337           	2.647912e-05	7.980580e-05	6.919508e-05	4.356948e-07
338           	2.612432e-05	7.874262e-05	6.820891e-05	4.345655e-07
339           	2.577539e-05	7.771076e-05	6.726152e-05	4.335112e-07
340           	2.542585e-05	7.663609e-05	6.630099e-05	4.321512e-07
341           	2.508376e-05	7.560980e-05	6.538925e-05	4.310424e-07
342           	2.474400e-05	7.458001e-05	6.449444e-05	4.299082e-07
343           	2.441071e-05	7.360431e-05	6.362873e-05	4.290581e-07
344           	2.407845e-05	7.263727e-05	6.275687e-05	4.277115e-07
345           	2.375383e-05	7.173058e-05	6.193524e-05	4.266554e-07
346           	2.342966e-05	7.084835e-05	6.112884e-05	4.257341e-07
347           	2.311260e-05	7.000266e-05	6.037021e-05	4.250471e-07
348           	2.279952e-05	6.916146e-05	5.962164e-05	4.240935e-07
349           	2.248920e-05	6.833035e-05	5.891229e-05	4.234048e-07
350           	2.218156e-05	6.752053e-05	5.821940e-05	4.228900e-07
351           	2.187653e-05	6.670134e-05	5.754327e-05	4.224491e-07
352           	2.157565e-05	6.588185e-05	5.684271e-05	4.215781e-07
353           	2.128039e-05	6.508545e-05	5.617033e-05	4.208690e-07
354           	2.098643e-05	6.427520e-05	5.548289e-05	4.202016e-07
355           	2.069873e-05	6.352469e-05	5.481798e-05	4.196986e-07
356           	2.041313e-05	6.277164e-05	5.413794e-05	4.188846e-07
357           	2.013260e-05	6.204588e-05	5.350129e-05	4.182800e-07
358           	1.985449e-05	6.132798e-05	5.286720e-05	4.178137e-07
359           	1.957974e-05	6.061043e-05	5.224085e-05	4.175155e-07
360           	1.931013e-05	5.989971e-05	5.162469e-05	4.170388e-07
361           	1.904462e-05	5.919510e-05	5.103632e-05	4.165705e-07
362           	1.878137e-05	5.847494e-05	5.044529e-05	4.161806e-07
363           	1.852150e-05	5.775523e-05	4.987468e-05	4.158367e-07
364           	1.826571e-05	5.706642e-05	4.931059e-05	4.153166e-07
365           	1.801264e-05	5.640247e-05	4.876976e-05	4.148758e-07
366           	1.776249e-05	5.573641e-05	4.823852e-05	4.145224e-07
367           	1.751783e-05	5.510326e-05	4.772979e-05	4.142793e-07
368           	1.727529e-05	5.445272e-05	4.721352e-05	4.136744e-07
369           	1.703757e-05	5.384548e-05	4.672922e-05	4.133856e-07
370           	1.680231e-05	5.324283e-05	4.623081e-05	4.130982e-07
371           	1.656933e-05	5.263231e-05	4.573650e-05	4.127824e-07
372           	1.633873e-05	5.203323e-05	4.523527e-05	4.124725e-07
373           	1.611089e-05	5.145528e-05	4.476215e-05	4.122028e-07
374           	1.588324e-05	5.087728e-05	4.425993e-05	4.120303e-07
375           	1.565859e-05	5.029910e-05	4.376986e-05	4.117755e-07
376           	1.543686e-05	4.972171e-05	4.327446e-05	4.113664e-07
377           	1.521616e-05	4.917163e-05	4.278896e-05	4.110045e-07
378           	1.499595e-05	4.860305e-05	4.230740e-05	4.108837e-07
379           	1.478234e-05	4.807153e-05	4.185129e-05	4.110216e-07
380           	1.456960e-05	4.754080e-05	4.136787e-05	4.106614e-07
381           	1.435964e-05	4.703677e-05	4.090197e-05	4.105731e-07
382           	1.415611e-05	4.657253e-05	4.043786e-05	4.107396e-07
383           	1.395393e-05	4.610678e-05	3.997475e-05	4.109635e-07
384           	1.375592e-05	4.562895e-05	3.951419e-05	4.109019e-07
385           	1.356340e-05	4.515863e-05	3.904946e-05	4.107264e-07
386           	1.337187e-05	4.464855e-05	3.856145e-05	4.105340e-07
387           	1.318541e-05	4.416014e-05	3.810262e-05	4.104442e-07
388           	1.300365e-05	4.368816e-05	3.766541e-05	4.103749e-07
389           	1.282378e-05	4.320041e-05	3.722664e-05	4.101759e-07
390           	1.264975e-05	4.274054e-05	3.683495e-05	4.099571e-07
391           	1.247925e-05	4.229677e-05	3.643131e-05	4.099310e-07
392           	1.231261e-05	4.183380e-05	3.604303e-05	4.095778e-07
393           	1.215084e-05	4.140703e-05	3.568007e-05	4.093868e-07
394           	1.199203e-05	4.099458e-05	3.533568e-05	4.097524e-07
395           	1.183720e-05	4.057432e-05	3.497522e-05	4.096433e-07
396           	1.168606e-05	4.015839e-05	3.466278e-05	4.095785e-07
397           	1.153789e-05	3.974898e-05	3.434770e-05	4.097658e-07
398           	1.139159e-05	3.934642e-05	3.403737e-05	4.099983e-07
399           	1.124912e-05	3.895811e-05	3.374430e-05	4.100562e-07
400           	1.110957e-05	3.857179e-05	3.348285e-05	4.103972e-07
401           	1.097115e-05	3.814436e-05	3.318908e-05	4.103749e-07
402           	1.083597e-05	3.774260e-05	3.292757e-05	4.104329e-07
403           	1.070489e-05	3.735155e-05	3.266368e-05	4.107030e-07
404           	1.057615e-05	3.696442e-05	3.237950e-05	4.110167e-07
405           	1.045079e-05	3.660414e-05	3.209553e-05	4.111827e-07
406           	1.032672e-05	3.624394e-05	3.181105e-05	4.113317e-07
407           	1.020824e-05	3.588656e-05	3.151849e-05	4.113134e-07
408           	1.009189e-05	3.552998e-05	3.124068e-05	4.114484e-07
409           	9.979308e-06	3.518682e-05	3.099035e-05	4.116934e-07
410           	9.867018e-06	3.485152e-05	3.071560e-05	4.119063e-07
411           	9.759381e-06	3.451241e-05	3.045643e-05	4.119347e-07
412           	9.654592e-06	3.419176e-05	3.022430e-05	4.121121e-07
413           	9.553413e-06	3.387807e-05	2.999103e-05	4.121901e-07
414           	9.452262e-06	3.356696e-05	2.976152e-05	4.122651e-07
415           	9.354820e-06	3.326818e-05	2.955871e-05	4.125726e-07
416           	9.259830e-06	3.299261e-05	2.934528e-05	4.129627e-07
417           	9.166937e-06	3.271608e-05	2.914222e-05	4.131003e-07
418           	9.073822e-06	3.243376e-05	2.892807e-05	4.131956e-07
419           	8.983281e-06	3.213916e-05	2.871436e-05	4.132982e-07
420           	8.892049e-06	3.184328e-05	2.848949e-05	4.135355e-07
421           	8.805613e-06	3.157434e-05	2.825573e-05	4.140002e-07
422           	8.716832e-06	3.129597e-05	2.800097e-05	4.144160e-07
423           	8.630984e-06	3.100895e-05	2.776139e-05	4.145768e-07
424           	8.544435e-06	3.072983e-05	2.750576e-05	4.148153e-07
425           	8.459892e-06	3.042182e-05	2.724789e-05	4.152019e-07
426           	8.378500e-06	3.013257e-05	2.700166e-05	4.155448e-07
427           	8.299077e-06	2.985869e-05	2.677626e-05	4.160139e-07
428           	8.219016e-06	2.956233e-05	2.651520e-05	4.162156e-07
429           	8.140430e-06	2.926470e-05	2.627948e-05	4.164992e-07
430           	8.061540e-06	2.897981e-05	2.603329e-05	4.170132e-07
431           	7.986771e-06	2.870973e-05	2.580124e-05	4.174424e-07
432           	7.911539e-06	2.844466e-05	2.556534e-05	4.178047e-07
433           	7.839019e-06	2.819054e-05	2.534497e-05	4.183024e-07
434           	7.770366e-06	2.794684e-05	2.512294e-05	4.186554e-07
435           	7.703203e-06	2.772014e-05	2.491655e-05	4.190549e-07
436           	7.636371e-06	2.749292e-05	2.471670e-05	4.194603e-07
437           	7.571096e-06	2.725706e-05	2.449614e-05	4.197923e-07
438           	7.507117e-06	2.702474e-05	2.428844e-05	4.201862e-07
439           	7.445695e-06	2.681283e-05	2.410210e-05	4.206973e-07
440           	7.384797e-06	2.659548e-05	2.390530e-05	4.213833e-07
441           	7.326679e-06	2.638860e-05	2.373274e-05	4.219651e-07
442           	7.267448e-06	2.617316e-05	2.354363e-05	4.224531e-07
443           	7.210750e-06	2.595792e-05	2.335958e-05	4.229504e-07
444           	7.155465e-06	2.573446e-05	2.317082e-05	4.235264e-07
445           	7.101780e-06	2.551927e-05	2.298356e-05	4.240156e-07
446           	7.049881e-06	2.531074e-05	2.278792e-05	4.245146e-07