# Probe 0 (3 1.5 2.5)
# Probe 1 (4.99 1.5 3.05)
# Probe 2 (5.7 1.5 2.5)
# Time        0             1             2            
0             0             0             0            
1             0.482137      -0.0792513    -0.757214    
2             1365.19       -116.251      -1501.4      
3             1329.4        -169.098      -1723.27     
4             213.868       -141.273      -864.432     
5             -938.717      -137.853      -53.6591     
6             -969.325      -169.573      83.5888      
7             -151.19       -205.051      -319.675     
8             510.15        -214.037      -683.972     
9             551.328       -198.782      -747.128     
10            152.851       -171.324      -534.779     
11            -231.389      -142.656      -325.23      
12            -284.836      -109.241      -234.895     
13            -103.146      -68.562       -282.553     
14            86.6121       -22.7831      -371.189     
15            144.153       29.4707       -403.517     
16            76.7372       89.1412       -355.06      
17            -27.2918      145.378       -271.587     
18            -58.5147      190.321       -198.55      
19            -25.1491      222.91        -156.266     
20            25.9202       243.078       -152.68      
21            44.635        253.56        -155.238     
22            33.5032       258.156       -140.235     
23            6.1325        259.931       -97.8896     
24            -8.3794       256.831       -48.7731     
25            -2.64592      244.307       -11.5438     
26            9.59468       220.156       10.499       
27            18.7101       185.948       17.4455      
28            17.955        150.697       21.5578      
29            14.6283       122.541       26.1221      
30            10.4613       106.865       39.6634      
31            7.08719       103.513       49.7616      
32            6.17929       111.733       52.0994      
33            5.77466       128.945       48.9785      
34            6.21429       146.726       41.0824      
35            7.46504       155.455       34.9344      
36            8.49273       150.363       33.2691      
37            9.55          132.481       37.1744      
38            9.47199       102.8         47.7118      
39            7.83008       62.1082       54.0273      
40            6.45073       21.2327       53.6148      
41            5.68589       -6.69566      53.8218      
42            5.11669       -17.3343      56.8938      
43            5.70553       -5.88467      56.979       
44            6.769         19.8905       54.7776      
45            7.45313       49.8486       51.6466      
46            7.56256       73.8665       43.0891      
47            7.3577        83.643        34.8691      
48            7.02931       74.0653       31.1602      
49            6.70398       48.9834       32.5628      
50            6.44165       19.6855       37.9919      
51            6.26905       -2.28181      42.8477      
52            6.01855       -10.1527      45.7777      
53            6.02827       -1.9867       47.2993      
54            6.32783       17.4238       47.5947      
55            6.64899       42.4879       46.9838      
56            6.79081       63.2075       45.7471      
57            6.79608       72.4212       45.5735      
58            6.69784       69.4825       46.5543      
59            6.61482       57.3151       48.0377      
60            6.5268        39.7895       49.5506      
61            6.56747       23.9667       49.1955      
62            6.68576       14.584        47.5179      
63            6.85568       11.5633       45.7818      
64            6.98042       15.1168       42.716       
65            7.01302       24.5146       39.2997      
66            6.98854       36.744        35.9731      
67            6.94223       47.074        32.7316      
68            6.91164       52.6214       29.4298      
69            6.88478       53.703        25.0618      
70            6.90952       52.8937       21.1052      
71            6.94684       51.6833       17.5282      
72            6.9896        51.033        13.9951      
73            7.00509       50.5366       10.8043      
74            6.96502       49.9357       8.92213      
75            6.90149       49.7037       7.84319      
76            6.82154       50.6185       6.52812      
77            6.78259       52.6922       5.72609      
78            6.78194       55.242        5.60851      
79            6.78536       57.5966       6.10346      
80            6.78399       59.4754       6.60945      
81            6.76515       60.8901       7.12185      
82            6.73681       61.8583       7.53064      
83            6.70603       62.3388       7.70533      
84            6.68352       62.3293       7.76012      
85            6.67029       61.9527       7.43597      
86            6.66407       61.5541       7.09072      
87            6.66355       61.445        6.98375      
88            6.66612       61.9896       7.04114      
89            6.6679        63.1844       7.34969      
90            6.66351       64.5478       7.8499       
91            6.66057       65.9881       8.53661      
92            6.65851       67.3841       9.14657      
93            6.65712       68.5449       9.52864      
94            6.65593       69.2833       9.80245      
95            6.65565       69.5248       10.103       
96            6.65669       69.3364       10.5218      
97            6.65877       68.8846       11.0348      
98            6.6602        68.3671       11.6107      
99            6.66169       67.9554       12.2372      
100           6.66184       67.7746       12.9253      
101           6.66208       67.8875       13.6727      
102           6.66205       68.2944       14.4367      
103           6.66202       68.9345       15.1837      
104           6.66177       69.7021       15.8986      
105           6.6612        70.4683       16.5701      
106           6.65987       71.1143       17.2114      
107           6.65844       71.5586       17.9035      
108           6.65673       71.7622       18.5877      
109           6.65506       71.7339       19.1615      
110           6.65314       71.5269       19.616       
111           6.6514        71.2178       20.0264      
112           6.64985       70.8811       20.4321      
113           6.64814       70.5776       20.851       
114           6.64588       70.3516       21.3181      
115           6.64357       70.225        21.7781      
116           6.6414        70.2041       22.2232      
117           6.64135       70.3092       22.6354      
118           6.64099       70.4744       23.0132      
119           6.64001       70.6558       23.3251      
120           6.63916       70.8374       23.628       
121           6.63857       71.0116       23.9277      
122           6.63802       71.1706       24.2569      
123           6.63953       71.2978       24.5381      
124           6.64292       71.3907       24.7721      
125           6.64631       71.4594       25.0107      
126           6.64933       71.5095       25.2185      
127           6.65742       71.5477       25.4008      
128           6.66871       71.5873       25.5825      
129           6.67988       71.6379       25.7543      
130           6.69007       71.7054       25.9427      
131           6.70025       71.7873       26.1206      
132           6.71121       71.8773       26.2565      
133           6.72484       71.974        26.376       
134           6.74032       72.0742       26.4996      
135           6.75684       72.1746       26.6373      
136           6.77363       72.2718       26.7959      
137           6.78685       72.3522       26.8436      
138           6.80779       72.4367       27.0633      
139           6.82396       72.4969       27.1221      
140           6.84306       72.5478       27.2055      
141           6.86492       72.5927       27.3442      
142           6.88291       72.6301       27.4571      
143           6.89818       72.6591       27.5129      
144           6.91377       72.6828       27.548       
145           6.92511       72.7002       27.537       
146           6.95326       72.725        27.6453      
147           6.96857       72.7433       27.6582      
148           6.98405       72.7637       27.7022      
149           7.00245       72.7868       27.7977      
150           7.02156       72.813        27.9448      
151           7.03469       72.8389       28.0793      
152           7.04501       72.8604       28.154       
153           7.05703       72.8783       28.1855      
154           7.07201       72.8937       28.1883      
155           7.08583       72.9085       28.1911      
156           7.10135       72.927        28.2325      
157           7.11062       72.9503       28.3053      
158           7.11774       72.9762       28.3735      
159           7.12493       73.0042       28.4264      
160           7.1362        73.0348       28.4633      
161           7.14563       73.069        28.4926      
162           7.15377       73.1073       28.5238      
163           7.16247       73.1493       28.5571      
164           7.16324       73.1722       28.557       
165           7.17265       73.2404       28.581       
166           7.17997       73.3067       28.6332      
167           7.18055       73.3337       28.6381      
168           7.19074       73.4093       28.7125      
169           7.19214       73.447        28.7173      
170           7.20061       73.5381       28.763       
171           7.2017        73.5844       28.7629      
172           7.20617       73.6747       28.7927      
173           7.20635       73.7146       28.7923      
174           7.20998       73.8079       28.8266      
175           7.21041       73.8494       28.8273      
176           7.21737       73.9483       28.8599      
177           7.21833       73.9945       28.8608      
178           7.22283       74.088        28.897       
179           7.22318       74.1309       28.898       
180           7.22326       74.1865       28.8963      
181           7.22587       74.285        28.946       
182           7.22625       74.3275       28.9479      
183           7.22678       74.3719       28.9504      
184           7.22744       74.4269       28.9512      
185           7.23113       74.52         29.0179      
186           7.23142       74.5535       29.0221      
187           7.23136       74.5839       29.0272      
188           7.23146       74.6206       29.032       
189           7.23202       74.6654       29.0356      
190           7.23687       74.7402       29.1013      
191           7.23726       74.7617       29.1069      
192           7.23746       74.7783       29.1129      
193           7.23749       74.7969       29.1192      
194           7.23744       74.8199       29.1256      
195           7.23702       74.8468       29.1327      
196           7.22694       74.8961       29.2321      
197           7.22556       74.9063       29.2414      
198           7.22505       74.9118       29.2507      
199           7.22531       74.9172       29.2611      
200           7.22694       74.9244       29.2719      
201           7.23015       74.9343       29.2824      
202           7.23461       74.9463       29.292       
203           7.26056       74.9697       29.3565      
204           7.26185       74.9716       29.3625      
205           7.26042       74.9697       29.3673      
206           7.25658       74.9655       29.3727      
207           7.24999       74.9604       29.3794      
208           7.24027       74.9556       29.3888      
209           7.22781       74.9523       29.4048      
210           7.18352       74.96         29.5469      
211           7.18349       74.957        29.5573      
212           7.18791       74.9515       29.5728      
213           7.20239       74.9424       29.595       
214           7.22308       74.9315       29.6121      
215           7.24057       74.9207       29.6196      
216           7.25446       74.9102       29.6199      
217           7.26488       74.8998       29.6125      
218           7.27166       74.8887       29.5957      
219           7.27429       74.8763       29.571       
220           7.26362       74.8655       29.6069      
221           7.26136       74.8591       29.6128      
222           7.25477       74.8494       29.6339      
223           7.24279       74.8377       29.6659      
224           7.23229       74.8269       29.6918      
225           7.22328       74.8156       29.7121      
226           7.21501       74.8018       29.7293      
227           7.20853       74.7838       29.7423      
228           7.20668       74.7612       29.749       
229           7.20939       74.7376       29.7504      
230           7.21621       74.7188       29.7508      
231           7.22337       74.7016       29.7526      
232           7.23091       74.6848       29.7566      
233           7.23852       74.6703       29.7629      
234           7.24566       74.6612       29.7715      
235           7.25101       74.6601       29.782       
236           7.25423       74.6667       29.7938      
237           7.25459       74.6779       29.8069      
238           7.25177       74.6886       29.821       
239           7.24634       74.693        29.8343      
240           7.24052       74.688        29.8447      
241           7.23532       74.6735       29.8522      
242           7.23128       74.6492       29.8578      
243           7.22805       74.615        29.8625      
244           7.22558       74.5732       29.8667      
245           7.22397       74.5293       29.8703      
246           7.22345       74.49         29.8732      
247           7.22407       74.4603       29.8753      
248           7.225         74.4422       29.8769      
249           7.22707       74.4352       29.8781      
250           7.22951       74.4384       29.8792      
251           7.2321        74.4502       29.8802      
252           7.23446       74.4679       29.8815      
253           7.23628       74.4876       29.8832      
254           7.23756       74.5051       29.8855      
255           7.23835       74.5163       29.8887      
256           7.23879       74.5184       29.8927      
257           7.23831       74.51         29.8974      
258           7.23752       74.4911       29.9026      
259           7.23644       74.4636       29.908       
260           7.23543       74.4316       29.9132      
261           7.2336        74.3991       29.918       
262           7.23197       74.3707       29.922       
263           7.23066       74.3484       29.9248      
264           7.22977       74.3324       29.9267      
265           7.22895       74.3223       29.9277      
266           7.22831       74.318        29.928       
267           7.22812       74.3194       29.9277      
268           7.22809       74.3255       29.9268      
269           7.22821       74.3346       29.9256      
270           7.22843       74.3446       29.9242      
271           7.22852       74.3533       29.9231      
272           7.22855       74.3591       29.9223      
273           7.22864       74.3608       29.9219      
274           7.22874       74.3579       29.9218      
275           7.22883       74.3503       29.922       
276           7.22887       74.3389       29.9224      
277           7.229         74.3246       29.9228      
278           7.22931       74.3091       29.9232      
279           7.22937       74.2942       29.9236      
280           7.22981       74.2809       29.9239      
281           7.22988       74.2706       29.9243      
282           7.22987       74.2637       29.9247      
283           7.22976       74.2596       29.9252      
284           7.22971       74.2577       29.9258      
285           7.22974       74.2572       29.9265      
286           7.22972       74.2571       29.9273      
287           7.22964       74.2569       29.928       
288           7.22948       74.2563       29.9288      
289           7.22921       74.255        29.9295      
290           7.22892       74.2532       29.9302      
291           7.22857       74.2508       29.931       
292           7.2283        74.248        29.9318      
293           7.22811       74.245        29.9327      
294           7.22808       74.2419       29.9338      
295           7.22817       74.2387       29.9349      
296           7.22835       74.2357       29.9361      
297           7.22836       74.2328       29.9373      
298           7.22833       74.23         29.9383      
299           7.22826       74.2275       29.9392      
300           7.22811       74.2253       29.9398      
301           7.22784       74.2233       29.9402      
302           7.22753       74.2217       29.9403      
303           7.22718       74.2204       29.9402      
304           7.227         74.2194       29.9399      
305           7.22689       74.2187       29.9395      
306           7.22682       74.218        29.9391      
307           7.22681       74.2173       29.9385      
308           7.22688       74.2164       29.9379      
309           7.22685       74.2153       29.9373      
310           7.22681       74.214        29.9366      
311           7.22672       74.2125       29.9359      
312           7.22661       74.2108       29.9353      
313           7.22644       74.2091       29.9347      
314           7.22628       74.2075       29.9342      
315           7.22604       74.206        29.9338      
316           7.22588       74.2049       29.9336      
317           7.22575       74.204        29.9335      
318           7.22564       74.2033       29.9336      
319           7.22554       74.2028       29.9339      
320           7.22553       74.2023       29.9342      
321           7.2255        74.2016       29.9346      
322           7.2255        74.2008       29.935       
323           7.22548       74.1997       29.9354      
324           7.22538       74.1984       29.9358      
325           7.22519       74.1968       29.9362      
326           7.22504       74.1952       29.9366      
327           7.22487       74.1937       29.937       
328           7.22475       74.1923       29.9374      
329           7.22463       74.1911       29.9379      
330           7.22447       74.1903       29.9385      
331           7.22429       74.1898       29.939       
332           7.22413       74.1895       29.9395      
333           7.22391       74.1893       29.94        
334           7.22373       74.1891       29.9405      
335           7.22357       74.1889       29.9408      
336           7.22344       74.1885       29.9411      
337           7.22326       74.1879       29.9412      
338           7.22309       74.187        29.9413      
339           7.22283       74.1861       29.9414      
340           7.2226        74.1851       29.9413      
341           7.2223        74.1842       29.9413      
342           7.22205       74.1835       29.9412      
343           7.22183       74.183        29.9412      
344           7.2217        74.1828       29.9411      
345           7.22157       74.1826       29.941       
346           7.22148       74.1826       29.9408      
347           7.22136       74.1826       29.9406      
348           7.22125       74.1824       29.9404      
349           7.22105       74.1821       29.94        
350           7.22086       74.1815       29.9396      
351           7.22065       74.1808       29.9392      
352           7.22048       74.1799       29.9388      
353           7.22029       74.179        29.9383      
354           7.22012       74.1781       29.9379      
355           7.21992       74.1773       29.9375      
356           7.21974       74.1766       29.9371      
357           7.21951       74.1761       29.9367      
358           7.21929       74.1757       29.9363      
359           7.21909       74.1755       29.9359      
360           7.21891       74.1753       29.9355      
361           7.2187        74.1752       29.935       
362           7.21849       74.1751       29.9345      
363           7.21831       74.1749       29.9339      
364           7.21814       74.1747       29.9333      
365           7.21794       74.1744       29.9328      
366           7.21774       74.1742       29.9322      
367           7.21751       74.174        29.9316      
368           7.2173        74.1738       29.9311      
369           7.21705       74.1738       29.9306      
370           7.21676       74.1739       29.93        
371           7.21644       74.1741       29.9296      
372           7.2162        74.1743       29.9291      
373           7.21594       74.1744       29.9286      
374           7.21566       74.1746       29.9281      
375           7.21544       74.1747       29.9276      
376           7.21523       74.1747       29.9271      
377           7.21506       74.1746       29.9266      
378           7.21491       74.1745       29.9261      
379           7.21471       74.1744       29.9256      
380           7.21448       74.1744       29.9251      
381           7.2143        74.1745       29.9247      
382           7.21411       74.1747       29.9243      
383           7.21394       74.1751       29.9239      
384           7.21376       74.1756       29.9235      
385           7.2135        74.1763       29.9231      
386           7.2132        74.177        29.9226      
387           7.21292       74.1777       29.9221      
388           7.21263       74.1784       29.9215      
389           7.21235       74.179        29.9209      
390           7.21209       74.1796       29.9202      
391           7.21182       74.18         29.9196      
392           7.21152       74.1804       29.9189      
393           7.21115       74.1807       29.9182      
394           7.21074       74.181        29.9175      
395           7.21044       74.1812       29.9168      
396           7.21008       74.1816       29.9161      
397           7.20979       74.182        29.9153      
398           7.20949       74.1825       29.9145      
399           7.20911       74.1831       29.9137      
400           7.20884       74.1837       29.9128      
401           7.20849       74.1844       29.9119      
402           7.20826       74.1851       29.911       
403           7.20804       74.1858       29.9101      
404           7.20788       74.1865       29.9093      
405           7.20765       74.1871       29.9084      
406           7.2075        74.1876       29.9076      
407           7.20735       74.188        29.9068      
408           7.2072        74.1884       29.906       
409           7.207         74.1887       29.9052      
410           7.20677       74.189        29.9043      
411           7.20658       74.1894       29.9035      
412           7.20637       74.1898       29.9026      
413           7.20611       74.1903       29.9017      
414           7.20586       74.1908       29.9008      
415           7.20557       74.1915       29.8999      
416           7.20529       74.1922       29.899       
417           7.20504       74.193        29.8981      
418           7.20471       74.1938       29.8973      
419           7.20443       74.1945       29.8965      
420           7.20418       74.1953       29.8957      
421           7.20396       74.196        29.8948      
422           7.20369       74.1967       29.894       
423           7.20344       74.1974       29.8931      
424           7.20318       74.1981       29.8922      
425           7.20292       74.1989       29.8913      
426           7.20267       74.1998       29.8903      
427           7.20243       74.2007       29.8894      
428           7.20219       74.2016       29.8884      
429           7.20192       74.2026       29.8875      
430           7.20158       74.2036       29.8866      
431           7.20141       74.2045       29.8857      
432           7.2012        74.2055       29.8848      
433           7.20104       74.2063       29.8839      
434           7.20083       74.2072       29.883       
435           7.20054       74.208        29.8821      
436           7.20009       74.2087       29.8811      
437           7.1996        74.2096       29.8801      
438           7.19911       74.2104       29.879       
439           7.19872       74.2113       29.8779      
440           7.19834       74.2123       29.8768      
441           7.19786       74.2133       29.8757      
442           7.19744       74.2144       29.8746      
443           7.19714       74.2155       29.8734      
444           7.19693       74.2165       29.8723      
445           7.19671       74.2175       29.8712      
446           7.19651       74.2185       29.8701      
447           7.19628       74.2194       29.869       
448           7.19601       74.2202       29.8678      
449           7.19565       74.221        29.8666      
450           7.19528       74.2218       29.8654      
451           7.19492       74.2226       29.8642      
452           7.19457       74.2234       29.8629      
453           7.19425       74.2242       29.8616      
454           7.19398       74.225        29.8604      
455           7.19381       74.2258       29.8591      
456           7.19365       74.2265       29.8579      
457           7.19346       74.2271       29.8567      
458           7.19325       74.2275       29.8555      
459           7.193         74.2279       29.8544      
460           7.19273       74.2281       29.8533      
461           7.19244       74.2284       29.8521      
462           7.19217       74.2287       29.8509      
463           7.19199       74.2292       29.8497      
464           7.19182       74.2298       29.8484      
465           7.19156       74.2307       29.847       
466           7.19116       74.2317       29.8457      
467           7.19073       74.2328       29.8443      
468           7.19023       74.234        29.843       
469           7.1897        74.2352       29.8417      
470           7.18925       74.2363       29.8404      
471           7.18879       74.2371       29.8391      
472           7.18833       74.2377       29.8378      
473           7.18786       74.2382       29.8365      
474           7.18732       74.2385       29.8352      
475           7.18683       74.2387       29.8338      
476           7.18639       74.239        29.8323      
477           7.18589       74.2393       29.8308      
478           7.18536       74.2398       29.8293      
479           7.18486       74.2405       29.8277      
480           7.18436       74.2412       29.8262      
481           7.18394       74.2421       29.8247      
482           7.18358       74.2428       29.8232      
483           7.18321       74.2435       29.8218      
484           7.18286       74.244        29.8204      
485           7.18246       74.2443       29.8191      
486           7.18205       74.2444       29.8177      
487           7.18177       74.2444       29.8164      
488           7.18156       74.2442       29.8149      
489           7.18129       74.2439       29.8134      
490           7.18087       74.2436       29.8118      
491           7.18044       74.2434       29.8102      
492           7.18003       74.2432       29.8086      
493           7.17968       74.2432       29.807       
494           7.17933       74.2433       29.8054      
495           7.17893       74.2434       29.8039      
496           7.17848       74.2436       29.8023      
497           7.17798       74.2439       29.8008      
498           7.17749       74.244        29.7994      
499           7.17707       74.2442       29.7979      
500           7.17672       74.2443       29.7964      
501           7.17623       74.2444       29.7948      
502           7.1757        74.2445       29.7932      
503           7.17515       74.2446       29.7914      
504           7.17457       74.2447       29.7896      
505           7.174         74.2448       29.7877      
506           7.17347       74.245        29.7859      
507           7.17296       74.2453       29.7841      
508           7.17247       74.2456       29.7823      
509           7.17207       74.246        29.7806      
510           7.17169       74.2465       29.7789      
511           7.17145       74.2469       29.7772      
512           7.17133       74.2473       29.7755      
513           7.17117       74.2477       29.7738      
514           7.17094       74.2479       29.7721      
515           7.17064       74.248        29.7704      
516           7.1703        74.248        29.7686      
517           7.16996       74.2478       29.7666      
518           7.16959       74.2475       29.7647      
519           7.16921       74.2472       29.7627      
520           7.16872       74.2469       29.7608      
521           7.1683        74.2466       29.759       
522           7.1679        74.2465       29.7572      
523           7.16757       74.2464       29.7554      
524           7.16722       74.2464       29.7536      
525           7.16683       74.2464       29.7519      
526           7.1664        74.2465       29.7501      
527           7.16599       74.2466       29.7482      
528           7.16549       74.2467       29.7464      
529           7.16499       74.2467       29.7445      
530           7.16446       74.2467       29.7425      
531           7.1639        74.2467       29.7404      
532           7.16329       74.2467       29.7382      