# Probe 0 (-1 0 0)
# Probe 1 (1 0 0)
# Probe 2 (1.7 0 0)
# Time        0             1             2            
0             0             0             0            
1             0.480167      -0.204777     -0.690883    
2             1307.29       -217.472      -1289.56     
3             1235.17       -276.386      -1479.84     
4             95.8904       -190.61       -773.248     
5             -985.426      -83.3378      -74.725      
6             -849.079      -50.8207      56.175       
7             30.5455       -75.5926      -203.451     
8             585.958       -117.856      -510.638     
9             465.619       -134.564      -605.674     
10            -19.8506      -127.278      -513.023     
11            -328.422      -100.052      -331.912     
12            -224.763      -79.5532      -230.986     
13            45.0126       -61.0346      -201.778     
14            189.698       -50.6346      -264.753     
15            126.439       -44.5097      -317.275     
16            -24.6155      -36.3662      -316.996     
17            -110.887      -15.4676      -251.877     
18            -66.5268      15.0812       -166.512     
19            16.7255       40.0459       -121.658     
20            74.5006       59.3848       -96.3293     
21            70.0125       64.405        -91.9905     
22            19.9422       58.6459       -87.0054     
23            -26.4127      50.8639       -60.3207     
24            -35.8223      54.5692       -4.22522     
25            -5.90283      64.6992       51.2925      
26            26.4397       68.2838       83.0477      
27            39.8699       59.6019       92.282       
28            29.8272       39.5451       86.6397      
29            11.0347       19.2898       80.2838      
30            -1.69984      10.6136       78.2458      
31            -3.60922      14.6088       85.0773      
32            3.81728       23.8601       94.7636      
33            9.51636       28.4608       99.7435      
34            17.4013       26.3074       104.393      
35            16.3488       17.9693       103.433      
36            13.0754       11.4069       100.785      
37            9.46991       11.5699       96.291       
38            8.99361       18.6999       90.5919      
39            8.41506       27.1531       85.7052      
40            5.5935        32.6868       90.5322      
41            4.80899       31.4871       91.5694      
42            8.12285       25.9494       97.506       
43            9.66619       19.1834       100.011      
44            11.9273       14.522        99.8031      
45            12.5063       12.2285       95.7118      
46            9.50942       11.5293       88.2973      
47            7.5415        12.1934       83.7806      
48            6.60556       13.7182       83.6276      
49            7.90484       14.1906       88.2214      
50            10.0562       14.3139       95.706       
51            10.9678       14.0071       101.494      
52            11.1466       12.769        102.267      
53            9.29315       11.1338       101.482      
54            8.36319       8.84928       97.5705      
55            7.7268        6.25452       94.6605      
56            8.36869       4.55474       93.7832      
57            9.27765       4.67218       95.5407      
58            9.8912        6.58929       98.8554      
59            10.1258       9.54481       102.252      
60            9.94125       12.0983       104.436      
61            9.72762       13.0804       104.076      
62            9.61202       12.7222       101.981      
63            9.577         12.0616       99.2804      
64            9.5878        12.0451       96.8455      
65            9.59424       12.8895       95.0751      
66            9.61273       14.3092       93.8064      
67            9.68192       15.9529       92.5446      
68            9.79701       17.2495       90.8252      
69            9.93958       17.7185       88.3878      
70            10.0391       17.1879       84.9602      
71            10.0275       15.9898       81.0444      
72            9.95158       14.9794       76.7029      
73            9.85502       14.8428       72.9815      
74            9.76702       15.4935       70.3348      
75            9.79992       16.3823       66.6009      
76            9.851         17.0713       64.2806      
77            9.91563       16.9828       62.7152      
78            9.9568        16.1427       61.8824      
79            9.95774       15.0027       61.6694      
80            9.90944       14.0612       61.7266      
81            9.74971       13.5803       59.7452      
82            9.73268       13.6143       59.5005      
83            9.75488       14.0296       59.1472      
84            9.81206       14.9225       59.0435      
85            9.88565       15.8484       59.4025      
86            9.95262       16.3611       60.1275      
87            10.0083       16.5008       61.1413      
88            10.0154       16.2375       62.2554      
89            9.99969       16.0238       63.7671      
90            9.91765       16.3845       65.6673      
91            9.88285       16.7448       66.789       
92            9.82921       17.1763       66.4187      
93            9.84496       17.7674       66.3704      
94            9.88713       18.4036       66.1682      
95            9.9534        18.9837       66.1513      
96            10.0201       19.3362       66.3568      
97            10.0483       19.3961       66.4547      
98            10.0383       19.3113       66.3402      
99            10.0016       19.1346       66.1429      
100           9.96027       18.9402       66.0655      
101           9.92928       18.8169       66.3019      
102           9.92394       18.8314       66.8463      
103           9.94237       19.0111       67.5088      
104           9.97106       19.32         68.0997      
105           10            19.6727       68.5315      
106           10.0181       19.9657       68.7921      
107           10.0228       20.1289       68.9182      
108           10.0232       20.1502       68.9656      
109           10.0241       20.0597       68.9866      
110           10.0249       19.9014       69.0154      
111           10.0196       19.7035       69.095       
112           10.0041       19.5329       69.232       
113           9.98346       19.4365       69.5423      
114           9.97743       19.428        69.9725      
115           9.98942       19.4831       70.3786      
116           10.0128       19.6078       70.8046      
117           10.0375       19.7941       71.2565      
118           10.0556       20.0116       71.6924      
119           10.06         20.2215       72.075       
120           10.0552       20.3859       72.3724      
121           10.0507       20.4369       72.4964      
122           10.0468       20.4239       72.579       
123           10.0467       20.4017       72.7493      
124           10.0526       20.4059       73.0181      
125           10.0635       20.4394       73.2996      
126           10.0827       20.4936       73.5448      
127           10.0917       20.5085       73.5223      
128           10.1071       20.5553       73.6315      
129           10.1128       20.6086       73.7042      
130           10.1157       20.6786       73.8086      
131           10.1191       20.7668       73.9672      
132           10.1246       20.8319       74.0171      
133           10.137        20.9436       74.332       
134           10.144        20.992        74.3803      
135           10.1527       21.0222       74.4333      
136           10.1658       21.0429       74.5261      
137           10.1838       21.0737       74.7105      
138           10.1968       21.1213       74.9276      
139           10.2017       21.1608       75.0392      
140           10.2045       21.1995       75.1047      
141           10.2085       21.2341       75.1157      
142           10.2156       21.2588       75.0736      
143           10.2258       21.2752       75.0346      
144           10.2286       21.2856       75.0262      
145           10.2329       21.3118       75.0724      
146           10.2483       21.4264       75.5572      
147           10.2496       21.4566       75.6018      
148           10.2515       21.4903       75.6458      
149           10.2549       21.5225       75.6714      
150           10.2602       21.5506       75.6661      
151           10.2683       21.5718       75.6031      
152           10.2762       21.5679       75.5042      
153           10.2781       21.5632       75.5554      
154           10.281        21.5931       75.7415      
155           10.2831       21.6236       75.8467      
156           10.2861       21.6688       75.945       
157           10.2884       21.729        76.032       
158           10.2888       21.7921       76.0816      
159           10.2861       21.8268       76.0542      
160           10.2833       21.8153       75.9988      
161           10.2839       21.8037       76.0444      
162           10.2871       21.8136       76.1008      
163           10.2906       21.8422       76.1732      
164           10.2947       21.8898       76.2608      
165           10.2987       21.9437       76.3336      
166           10.3029       21.9806       76.3431      
167           10.3044       21.9789       76.2777      
168           10.304        21.9629       76.2609      
169           10.3016       21.9709       76.3241      
170           10.3001       21.9899       76.3785      
171           10.2988       22.0232       76.4471      
172           10.2986       22.064        76.5146      
173           10.2983       22.1014       76.5562      
174           10.2979       22.1048       76.5513      
175           10.2982       22.1031       76.471       
176           10.2982       22.0963       76.4648      
177           10.2981       22.0936       76.4639      
178           10.2983       22.1115       76.5739      
179           10.2979       22.1178       76.596       
180           10.2982       22.155        76.6989      
181           10.2985       22.1951       76.794       
182           10.2982       22.204        76.81        
183           10.2987       22.2299       76.8268      
184           10.2984       22.2287       76.8196      
185           10.2987       22.2238       76.8088      
186           10.2985       22.2218       76.8064      
187           10.2983       22.2223       76.8125      
188           10.2985       22.2422       76.8859      
189           10.2984       22.2485       76.9067      
190           10.2979       22.2574       76.9351      
191           10.2979       22.2974       77.0563      
192           10.2976       22.303        77.075       
193           10.2974       22.3058       77.084       
194           10.298        22.3217       77.1296      
195           10.2977       22.3204       77.1299      
196           10.297        22.319        77.1334      
197           10.2956       22.3272       77.192       
198           10.2954       22.3302       77.2073      
199           10.2953       22.3364       77.2319      
200           10.2959       22.3605       77.303       
201           10.2956       22.3671       77.3198      
202           10.2954       22.3716       77.3229      
203           10.2964       22.3734       77.271       
204           10.2961       22.3695       77.2608      
205           10.2954       22.3608       77.247       
206           10.2953       22.3567       77.3389      
207           10.2951       22.3581       77.3533      
208           10.2948       22.3661       77.3958      
209           10.2949       22.4008       77.5214      
210           10.2946       22.4083       77.5424      
211           10.2946       22.4143       77.5522      
212           10.2946       22.4183       77.5498      
213           10.2949       22.4139       77.4879      
214           10.2945       22.4089       77.4731      
215           10.2942       22.399        77.4511      
216           10.2942       22.3853       77.4253      
217           10.2954       22.3698       77.4887      
218           10.2953       22.3721       77.5057      
219           10.2948       22.3843       77.5617      
220           10.295        22.4245       77.6875      
221           10.2949       22.4305       77.7012      
222           10.2952       22.4346       77.7026      
223           10.2958       22.4348       77.6884      
224           10.2957       22.4299       77.6607      
225           10.2949       22.4214       77.628       
226           10.2942       22.4108       77.5937      
227           10.2945       22.3997       77.5645      
228           10.2955       22.3909       77.5505      
229           10.2962       22.3856       77.557       
230           10.2962       22.3851       77.5911      
231           10.2954       22.3929       77.6529      
232           10.2945       22.4045       77.7048      
233           10.2942       22.4131       77.7331      
234           10.2945       22.4186       77.7456      
235           10.2948       22.4215       77.7472      
236           10.295        22.4222       77.7416      
237           10.2949       22.421        77.7321      
238           10.2947       22.4186       77.7223      
239           10.2944       22.4157       77.7152      
240           10.2942       22.4132       77.7125      
241           10.2939       22.4114       77.7142      
242           10.2937       22.4103       77.7191      
243           10.2936       22.4097       77.7252      
244           10.2936       22.4094       77.7309      
245           10.2939       22.4091       77.7347      
246           10.2942       22.4087       77.7358      
247           10.2944       22.4082       77.7351      
248           10.2944       22.4078       77.7345      
249           10.2942       22.4075       77.7355      
250           10.2938       22.4074       77.7387      
251           10.2935       22.4075       77.7439      
252           10.2935       22.4079       77.7504      
253           10.2936       22.4084       77.7577      
254           10.2937       22.4089       77.7654      
255           10.2936       22.4093       77.7729      
256           10.2935       22.4098       77.7797      
257           10.2934       22.4103       77.7855      
258           10.2934       22.411        77.79        
259           10.2933       22.4119       77.7932      
260           10.2931       22.413        77.7952      
261           10.2929       22.414        77.7961      
262           10.2926       22.4148       77.7962      
263           10.2923       22.4154       77.7955      
264           10.2921       22.4157       77.7945      
265           10.2921       22.4159       77.7932      
266           10.2922       22.4157       77.7919      
267           10.2923       22.4153       77.7905      
268           10.2923       22.4147       77.7893      
269           10.2921       22.4139       77.7882      
270           10.292        22.4131       77.7873      
271           10.2918       22.4124       77.7867      
272           10.2916       22.412        77.7864      
273           10.2915       22.4118       77.7866      
274           10.2914       22.4118       77.7874      
275           10.2914       22.4118       77.7887      
276           10.2914       22.4118       77.7905      
277           10.2914       22.4118       77.7929      
278           10.2914       22.4118       77.7956      
279           10.2914       22.4119       77.7986      
280           10.2914       22.4122       77.8018      
281           10.2913       22.4128       77.8048      
282           10.2911       22.4135       77.8077      
283           10.2908       22.4143       77.8103      
284           10.2905       22.4151       77.8124      
285           10.2903       22.4159       77.8141      
286           10.29         22.4167       77.8153      
287           10.2898       22.4175       77.8162      
288           10.2895       22.4182       77.8168      
289           10.2893       22.419        77.8173      
290           10.2891       22.4197       77.8176      
291           10.2888       22.4202       77.8179      
292           10.2886       22.4207       77.8183      
293           10.2884       22.4212       77.8187      
294           10.2881       22.4218       77.8192      
295           10.2879       22.4222       77.8198      
296           10.2877       22.4226       77.8204      
297           10.2875       22.4229       77.8211      
298           10.2873       22.4231       77.8217      
299           10.2872       22.4234       77.8222      
300           10.2871       22.4239       77.8227      
301           10.287        22.4243       77.8232      
302           10.2868       22.4248       77.8236      
303           10.2865       22.4254       77.8241      
304           10.2862       22.426        77.8245      
305           10.2858       22.4266       77.825       
306           10.2855       22.4272       77.8255      
307           10.2852       22.4277       77.8259      
308           10.2849       22.4282       77.8262      
309           10.2846       22.4285       77.8263      
310           10.2843       22.4288       77.8263      
311           10.284        22.4292       77.826       
312           10.2836       22.4296       77.8256      
313           10.2833       22.4301       77.8251      
314           10.2829       22.4307       77.8246      
315           10.2827       22.4313       77.8241      
316           10.2824       22.4319       77.8237      
317           10.2821       22.4324       77.8234      
318           10.2818       22.4329       77.8232      
319           10.2813       22.4332       77.8231      
320           10.2809       22.4334       77.823       
321           10.2804       22.4337       77.823       
322           10.28         22.434        77.823       
323           10.2795       22.4345       77.8231      
324           10.279        22.435        77.8232      
325           10.2786       22.4355       77.8234      
326           10.2782       22.436        77.8237      
327           10.2777       22.4366       77.824       
328           10.2772       22.4371       77.8244      
329           10.2767       22.4377       77.8249      
330           10.2762       22.4382       77.8253      
331           10.2759       22.4388       77.8258      
332           10.2756       22.4393       77.8263      
333           10.2753       22.4399       77.8267      
334           10.2749       22.4406       77.827       
335           10.2744       22.4412       77.8273      
336           10.2739       22.4419       77.8276      
337           10.2735       22.4425       77.8278      
338           10.273        22.4432       77.8279      
339           10.2726       22.4438       77.8281      
340           10.2722       22.4444       77.8282      
341           10.2719       22.4449       77.8282      
342           10.2716       22.4455       77.8283      
343           10.2714       22.446        77.8283      
344           10.2712       22.4465       77.8283      
345           10.271        22.4471       77.8284      
346           10.2707       22.4476       77.8284      
347           10.2704       22.4481       77.8285      
348           10.2701       22.4486       77.8285      
349           10.2697       22.4491       77.8286      
350           10.2692       22.4496       77.8287      
351           10.2687       22.4502       77.8288      
352           10.2682       22.4508       77.8288      
353           10.2676       22.4514       77.8289      
354           10.2671       22.452        77.8289      
355           10.2666       22.4526       77.8288      
356           10.2661       22.4531       77.8287      
357           10.2656       22.4536       77.8287      
358           10.2652       22.4541       77.8286      
359           10.2648       22.4545       77.8285      
360           10.2644       22.4549       77.8284      
361           10.264        22.4554       77.8283      
362           10.2636       22.4559       77.8282      
363           10.2632       22.4565       77.828       
364           10.2627       22.4571       77.8278      
365           10.2622       22.4577       77.8276      
366           10.2617       22.4584       77.8273      
367           10.2613       22.459        77.8271      
368           10.2607       22.4596       77.8269      
369           10.2602       22.4602       77.8267      
370           10.2596       22.4607       77.8266      
371           10.259        22.4613       77.8265      
372           10.2584       22.4618       77.8265      
373           10.2579       22.4622       77.8264      
374           10.2574       22.4626       77.8264      
375           10.2569       22.4629       77.8263      
376           10.2564       22.4633       77.8262      
377           10.256        22.4637       77.8261      
378           10.2556       22.4641       77.826       
379           10.2553       22.4647       77.8259      
380           10.2549       22.4654       77.8258      
381           10.2545       22.4661       77.8258      
382           10.2541       22.4668       77.8258      
383           10.2537       22.4674       77.8258      
384           10.2533       22.4679       77.8259      
385           10.2529       22.4683       77.8259      
386           10.2524       22.4686       77.8259      
387           10.2519       22.4689       77.8259      
388           10.2514       22.4691       77.8258      
389           10.2508       22.4694       77.8256      
390           10.2503       22.4696       77.8254      
391           10.2497       22.47         77.8253      
392           10.2491       22.4704       77.8251      
393           10.2485       22.4708       77.825       
394           10.2479       22.4713       77.8249      
395           10.2473       22.4719       77.8248      
396           10.2467       22.4725       77.8247      
397           10.246        22.4731       77.8247      
398           10.2453       22.4738       77.8246      
399           10.2446       22.4744       77.8244      
400           10.2438       22.475        77.8242      
401           10.2432       22.4755       77.824       
402           10.2425       22.476        77.8237      
403           10.242        22.4764       77.8235      
404           10.2414       22.4768       77.8232      
405           10.2409       22.4771       77.823       
406           10.2405       22.4775       77.8228      
407           10.2401       22.4779       77.8226      
408           10.2397       22.4784       77.8224      
409           10.2392       22.4788       77.8222      
410           10.2387       22.4793       77.8218      
411           10.2383       22.4797       77.8215      
412           10.2378       22.4801       77.8211      
413           10.2373       22.4805       77.8207      
414           10.2369       22.4807       77.8202      
415           10.2364       22.4809       77.8198      
416           10.2359       22.481        77.8194      
417           10.2354       22.4812       77.819       
418           10.2348       22.4813       77.8186      
419           10.2342       22.4815       77.8182      
420           10.2337       22.4818       77.8177      
421           10.2331       22.4821       77.8173      
422           10.2325       22.4824       77.8169      
423           10.2319       22.4826       77.8164      
424           10.2312       22.4829       77.8159      
425           10.2303       22.4832       77.8154      
426           10.2294       22.4834       77.815       
427           10.2285       22.4836       77.8145      
428           10.2278       22.4838       77.814       
429           10.2271       22.4841       77.8136      
430           10.2263       22.4844       77.8131      
431           10.2255       22.4848       77.8126      
432           10.2248       22.4852       77.8122      
433           10.2241       22.4855       77.8117      
434           10.2235       22.4858       77.8112      
435           10.2229       22.486        77.8107      
436           10.2223       22.4862       77.8102      
437           10.2217       22.4863       77.8097      
438           10.2211       22.4863       77.8091      
439           10.2205       22.4864       77.8085      
440           10.22         22.4865       77.8079      
441           10.2195       22.4867       77.8073      
442           10.2189       22.4868       77.8066      
443           10.2184       22.4871       77.8059      
444           10.2179       22.4873       77.8052      
445           10.2174       22.4874       77.8045      
446           10.2169       22.4875       77.8037      
447           10.2163       22.4875       77.8029      
448           10.2155       22.4874       77.8021      
449           10.2149       22.4872       77.8013      
450           10.2144       22.4871       77.8004      
451           10.2139       22.4869       77.7995      
452           10.2134       22.4868       77.7986      
453           10.2126       22.4868       77.7976      
454           10.2117       22.4868       77.7966      
455           10.2108       22.4869       77.7957      
456           10.21         22.487        77.7947      
457           10.2092       22.4872       77.7938      
458           10.2086       22.4873       77.7929      
459           10.2078       22.4874       77.7919      
460           10.207        22.4874       77.7909      
461           10.2065       22.4874       77.79        
462           10.2061       22.4873       77.789       
463           10.2057       22.4871       77.7879      
464           10.2054       22.4869       77.7869      
465           10.205        22.4867       77.7858      
466           10.2045       22.4865       77.7846      
467           10.2038       22.4863       77.7835      
468           10.203        22.4862       77.7823      
469           10.2021       22.486        77.7811      
470           10.2012       22.4859       77.7799      
471           10.2005       22.4858       77.7787      
472           10.1998       22.4857       77.7774      
473           10.1992       22.4854       77.7761      
474           10.1987       22.4852       77.7747      
475           10.1983       22.4848       77.7733      
476           10.1978       22.4844       77.7719      
477           10.1972       22.484        77.7705      
478           10.1964       22.4835       77.769       
479           10.1956       22.4831       77.7675      
480           10.1947       22.4828       77.766       
481           10.1939       22.4826       77.7645      
482           10.1931       22.4824       77.763       
483           10.1924       22.4823       77.7615      
484           10.1916       22.4822       77.76        
485           10.1912       22.4821       77.7584      
486           10.1908       22.4819       77.7569      
487           10.1906       22.4816       77.7553      
488           10.19         22.4813       77.7537      
489           10.1895       22.4809       77.752       
490           10.1889       22.4804       77.7503      
491           10.1884       22.4799       77.7485      
492           10.1879       22.4794       77.7468      
493           10.1872       22.4789       77.7449      
494           10.1865       22.4784       77.743       
495           10.1857       22.4779       77.7411      
496           10.1849       22.4775       77.7392      
497           10.1842       22.4772       77.7373      
498           10.1834       22.4768       77.7353      
499           10.1827       22.4764       77.7332      
500           10.1821       22.476        77.7312      
