# Probe 0 (3 1.5 2.5)
# Probe 1 (4.99 1.5 3.05)
# Probe 2 (5.7 1.5 2.5)
# Time        0             1             2            
0             0             0             0            
1             0.477911      -0.0564611    -0.702417    
2             1356.32       -78.7478      -1317.46     
3             1332.48       -99.0145      -1506.37     
4             238.535       -82.569       -758.145     
5             -922.315      -85.254       -54.7346     
6             -971.563      -110.026      71.9641      
7             -164.033      -133.266      -256.745     
8             497.504       -134.405      -579.889     
9             548.332       -117.424      -657.376     
10            160.568       -92.2989      -492.856     
11            -220.606      -68.4247      -295.664     
12            -276.179      -45.3156      -205.533     
13            -93.5335      -17.9604      -223.613     
14            97.2009       12.163        -300.968     
15            150.976       51.6055       -335.108     
16            80.8575       100.123       -306.729     
17            -21.4478      145.603       -237.209     
18            -52.966       179.434       -171.242     
19            -19.4364      200.992       -120.492     
20            30.1148       212.066       -103.256     
21            47.9921       213.544       -101.18      
22            35.6817       207.936       -91.6123     
23            8.05243       198.074       -56.3541     
24            -5.38697      180.766       -12.4528     
25            1.77787       151.808       27.6321      
26            14.6323       109.559       54.949       
27            23.3818       59.7164       70.6574      
28            22.849        13.3529       77.678       
29            17.7852       -19.8757      80.844       
30            10.8918       -33.2157      85.0311      
31            6.51617       -29.5921      89.0025      
32            6.28968       -10.3021      89.5817      
33            7.97046       20.4794       86.2263      
34            11.1215       58.8538       78.1272      
35            13.4755       89.7148       72.9913      
36            13.4898       101.765       72.3577      
37            12.5154       98.8584       75.4689      
38            10.4415       81.1407       83.7062      
39            8.28856       52.6426       88.859       
40            7.37347       21.8397       87.7034      
41            7.46068       -2.47997      87.0282      
42            8.21998       -16.659       89.1532      
43            9.33614       -18.7942      90.7047      
44            9.9266        -9.79451      89.9081      
45            9.72173       8.47038       85.6836      
46            9.1192        29.3277       77.3723      
47            8.40258       46.1787       68.5295      
48            7.87343       55.8886       63.8898      
49            7.68173       58.7449       65.6058      
50            7.77672       57.1514       72.0246      
51            7.94117       53.249        78.9444      
52            8.15631       47.8177       82.8843      
53            8.27249       40.9432       83.103       
54            8.15357       33.3752       79.7845      
55            7.93685       26.9922       75.2295      
56            7.82928       24.0258       72.4496      
57            7.80362       25.203        73.054       
58            7.84944       29.641        76.0666      
59            7.96583       35.5025       79.5547      
60            8.0905        40.636        81.6568      
61            8.15308       43.5917       81.4878      
62            8.1622        44.1527       79.3738      
63            8.16481       43.0146       76.3705      
64            8.17608       40.9982       73.4908      
65            8.20699       38.4588       71.3763      
66            8.26536       35.9449       70.3472      
67            8.33682       33.5284       70.1558      
68            8.42593       31.505        70.3427      
69            8.50514       30.3078       70.4986      
70            8.55405       30.2074       70.3338      
71            8.57326       31.0759       69.6765      
72            8.56177       32.4677       68.7042      
73            8.54916       33.8535       67.6832      
74            8.55704       34.8501       66.8152      
75            8.57462       35.3131       66.2606      
76            8.59599       35.2598       65.9475      
77            8.61056       34.834        65.9186      
78            8.61511       34.1486       66.0062      
79            8.6087        33.3295       66.0926      
80            8.59654       32.5049       66.1084      
81            8.58181       31.7991       66.0896      
82            8.56778       31.308        66.124       
83            8.55523       31.0744       66.2711      
84            8.54357       31.0823       66.5098      
85            8.53958       31.2511       66.7818      
86            8.53497       31.5453       66.938       
87            8.53176       31.8263       67.0984      
88            8.52714       32.082        67.2018      
89            8.52058       32.2772       67.3169      
90            8.5133        32.3942       67.4917      
91            8.50454       32.4294       67.737       
92            8.4958        32.3919       68.0359      
93            8.48711       32.3025       68.3456      
94            8.47963       32.1915       68.6063      
95            8.4747        32.0936       68.7761      
96            8.47216       32.0359       68.8564      
97            8.47105       32.0321       68.8771      
98            8.47018       32.0848       68.8811      
99            8.46858       32.1844       68.9141      
100           8.46645       32.279        68.9478      
101           8.46361       32.3984       69.0509      
102           8.46039       32.5266       69.2169      
103           8.4574        32.6386       69.4028      
104           8.45514       32.7183       69.5594      
105           8.45305       32.7634       69.6695      
106           8.44901       32.7774       69.7378      
107           8.44384       32.7659       69.778       
108           8.43844       32.736        69.8096      
109           8.4349        32.6952       69.8526      
110           8.43272       32.6508       69.9143      
111           8.43172       32.6094       69.9872      
112           8.43102       32.5755       70.0638      
113           8.42978       32.5516       70.1416      
114           8.42784       32.5374       70.2207      
115           8.42544       32.5311       70.3005      
116           8.4232        32.5287       70.3764      
117           8.42135       32.5263       70.4407      
118           8.41981       32.5205       70.4874      
119           8.41834       32.5104       70.5207      
120           8.41577       32.4969       70.551       
121           8.41348       32.4816       70.5877      
122           8.41105       32.4663       70.6382      
123           8.4088        32.4527       70.7046      
124           8.40482       32.4412       70.7799      
125           8.40269       32.431        70.8468      
126           8.40118       32.4208       70.8953      
127           8.40029       32.4101       70.9287      
128           8.39982       32.3989       70.9552      
129           8.39919       32.3882       70.9831      
130           8.39823       32.3788       71.0179      
131           8.39775       32.3751       71.0221      
132           8.39613       32.3658       71.0598      
133           8.39489       32.3584       71.109       
134           8.39468       32.3564       71.1151      
135           8.39377       32.3536       71.1825      
136           8.39342       32.3513       71.1908      
137           8.39222       32.3469       71.2597      
138           8.39176       32.3433       71.2685      
139           8.39124       32.3379       71.2774      
140           8.38988       32.3251       71.3393      
141           8.38955       32.3194       71.3483      
142           8.38903       32.313        71.3579      
143           8.38834       32.3049       71.3677      
144           8.38673       32.289        71.4495      
145           8.38636       32.2846       71.4612      
146           8.38603       32.2814       71.4731      
147           8.38569       32.2783       71.4853      
148           8.38538       32.2747       71.4971      
149           8.38512       32.2703       71.5077      
150           8.38476       32.2652       71.5166      
151           8.38427       32.2599       71.5268      
152           8.38378       32.2555       71.5442      
153           8.38345       32.2527       71.5678      
154           8.38323       32.2508       71.5891      
155           8.38305       32.2488       71.6069      
156           8.38295       32.2465       71.6232      
157           8.38284       32.2435       71.6391      
158           8.38268       32.2398       71.6547      
159           8.38247       32.2354       71.6699      
160           8.38225       32.2306       71.6838      
161           8.38199       32.2259       71.696       
162           8.38163       32.2217       71.7064      
163           8.38132       32.2183       71.7156      
164           8.38112       32.2155       71.7241      
165           8.38096       32.2134       71.7324      
166           8.38079       32.2117       71.7405      
167           8.38061       32.2104       71.7486      
168           8.38049       32.2092       71.7567      
169           8.38038       32.208        71.7651      
170           8.38011       32.2066       71.7738      
171           8.37984       32.2052       71.7828      
172           8.37954       32.2037       71.7919      
173           8.37929       32.2023       71.801       
174           8.379         32.2009       71.8099      
175           8.37872       32.1996       71.8181      
176           8.37852       32.1982       71.8256      
177           8.3784        32.1969       71.832       
178           8.37825       32.1955       71.8375      
179           8.37806       32.194        71.8419      
180           8.37787       32.1925       71.8455      
181           8.37767       32.191        71.8483      
182           8.3774        32.1895       71.8502      
183           8.3773        32.188        71.8516      
184           8.37723       32.1867       71.8523      
185           8.37702       32.1853       71.8528      
186           8.37664       32.184        71.8531      
187           8.3762        32.1827       71.8534      
188           8.37584       32.1813       71.8537      
189           8.37559       32.1799       71.8543      
190           8.37544       32.1783       71.8551      
191           8.37528       32.1766       71.8562      
192           8.37513       32.1748       71.8574      
193           8.37493       32.1729       71.8589      
194           8.37461       32.171        71.8604      
195           8.37432       32.1691       71.8621      
196           8.37416       32.1672       71.8639      
197           8.37411       32.1653       71.8658      
198           8.37403       32.1634       71.8677      
199           8.37387       32.1617       71.8697      
200           8.37367       32.1599       71.8716      
201           8.37345       32.1583       71.8735      
202           8.37314       32.1567       71.8754      
203           8.37293       32.155        71.8771      
204           8.3729        32.1534       71.8787      
205           8.37289       32.1518       71.88        
206           8.37282       32.1502       71.8811      
207           8.37265       32.1486       71.882       
208           8.37245       32.147        71.8827      
209           8.37217       32.1454       71.8833      
210           8.37183       32.1439       71.8838      
211           8.37158       32.1424       71.8843      
212           8.37137       32.141        71.8848      
213           8.37127       32.1397       71.8852      
214           8.37119       32.1386       71.8856      
215           8.37117       32.1376       71.8859      
216           8.37124       32.1365       71.8861      
217           8.37128       32.1355       71.8862      
218           8.37129       32.1344       71.8863      
219           8.37133       32.1334       71.8863      
220           8.37135       32.1322       71.8863      
221           8.37132       32.131        71.8864      
222           8.3712        32.1298       71.8866      
223           8.37111       32.1286       71.8868      
224           8.37103       32.1274       71.8871      
225           8.37096       32.1264       71.8875      
226           8.37089       32.1253       71.8879      
227           8.37091       32.1244       71.8882      
228           8.371         32.1236       71.8885      
229           8.37105       32.1229       71.8886      
230           8.3711        32.1224       71.8887      
231           8.37113       32.1219       71.8886      
232           8.37115       32.1216       71.8885      
233           8.37109       32.1213       71.8883      
234           8.37095       32.121        71.8881      
235           8.37084       32.1207       71.8879      
236           8.37077       32.1204       71.8876      
237           8.37073       32.1202       71.8873      
238           8.37071       32.12         71.8869      
239           8.37068       32.1198       71.8866      
240           8.37061       32.1196       71.8861      
241           8.37055       32.1195       71.8857      
242           8.37049       32.1193       71.8852      
243           8.37043       32.119        71.8846      
244           8.37034       32.1188       71.884       
245           8.37019       32.1186       71.8834      
246           8.37          32.1183       71.8829      
247           8.3698        32.1181       71.8823      
248           8.3696        32.1179       71.8817      
249           8.36949       32.1178       71.8811      
250           8.36942       32.1177       71.8804      
251           8.36933       32.1177       71.8798      
252           8.36918       32.1178       71.8791      
253           8.36898       32.1179       71.8784      
254           8.36867       32.118        71.8775      
255           8.3684        32.1181       71.8767      
256           8.36817       32.1183       71.8758      
257           8.36796       32.1184       71.8748      
258           8.36773       32.1185       71.8738      
259           8.36756       32.1186       71.8727      
260           8.36747       32.1187       71.8716      
261           8.36745       32.1189       71.8705      
262           8.36735       32.1191       71.8692      
263           8.36725       32.1195       71.8679      
264           8.36703       32.1199       71.8665      
265           8.36677       32.1203       71.865       
266           8.36643       32.1208       71.8635      
267           8.36613       32.1212       71.8619      
268           8.36588       32.1217       71.8603      
269           8.36571       32.1221       71.8587      
270           8.3656        32.1225       71.857       
271           8.36554       32.1228       71.8554      
272           8.36542       32.1229       71.8538      
273           8.3653        32.123        71.8522      
274           8.36511       32.1229       71.8505      
275           8.36486       32.1227       71.8488      
276           8.3646        32.1225       71.847       
277           8.36432       32.1221       71.8452      
278           8.36395       32.1217       71.8434      
279           8.36374       32.1214       71.8415      
280           8.36369       32.121        71.8397      
281           8.36371       32.1207       71.8378      
282           8.36371       32.1203       71.836       
283           8.36364       32.1201       71.8342      
284           8.36346       32.1198       71.8324      
285           8.36331       32.1196       71.8306      
286           8.36307       32.1194       71.8288      
287           8.36282       32.1191       71.827       
288           8.36257       32.1189       71.8251      
289           8.36246       32.1188       71.8232      
290           8.36238       32.1186       71.8212      
291           8.3623        32.1185       71.8192      
292           8.36216       32.1185       71.8171      
293           8.362         32.1186       71.8149      
294           8.36182       32.1188       71.8128      
295           8.3616        32.119        71.8106      
296           8.36124       32.1193       71.8084      
297           8.36089       32.1197       71.8062      
298           8.36056       32.12         71.804       
299           8.36026       32.1204       71.8017      
300           8.35996       32.1208       71.7993      
301           8.35967       32.1212       71.7969      
302           8.35932       32.1216       71.7944      
303           8.35896       32.122        71.7919      
304           8.35855       32.1225       71.7893      
305           8.35822       32.1231       71.7867      
306           8.35793       32.1236       71.7841      
307           8.35763       32.1242       71.7815      
308           8.35727       32.1247       71.7788      
309           8.35682       32.1252       71.7762      
310           8.35633       32.1257       71.7735      
311           8.35577       32.126        71.7708      
312           8.35507       32.1264       71.7681      
313           8.35438       32.1266       71.7653      
314           8.35374       32.1268       71.7624      
315           8.35328       32.1269       71.7594      
316           8.35283       32.1269       71.7564      
317           8.35237       32.1268       71.7534      
318           8.35196       32.1266       71.7504      
319           8.35172       32.1264       71.7474      
320           8.35142       32.126        71.7445      
321           8.35119       32.1256       71.7415      
322           8.35093       32.1252       71.7384      
323           8.35073       32.1248       71.7354      
324           8.35058       32.1244       71.7322      
325           8.35049       32.1241       71.7291      
326           8.35036       32.1238       71.7258      
327           8.35019       32.1237       71.7226      
328           8.34992       32.1237       71.7193      
329           8.34968       32.1238       71.716       
330           8.34949       32.124        71.7127      
331           8.34938       32.1242       71.7094      
332           8.3492        32.1245       71.7061      
333           8.34901       32.1249       71.7028      
334           8.34876       32.1253       71.6994      
335           8.34854       32.1258       71.696       
336           8.34826       32.1263       71.6926      
337           8.34798       32.127        71.6892      
338           8.34766       32.1278       71.6857      
339           8.34741       32.1288       71.6821      
340           8.34714       32.1299       71.6786      
341           8.34694       32.1311       71.675       
342           8.34678       32.1324       71.6713      
343           8.34669       32.1337       71.6677      
344           8.3465        32.135        71.664       
345           8.34627       32.1361       71.6604      
346           8.34599       32.1371       71.6567      
347           8.34577       32.1379       71.653       
348           8.34553       32.1385       71.6493      
349           8.34533       32.1389       71.6455      
350           8.34509       32.1391       71.6417      
351           8.34487       32.1392       71.6378      
352           8.34457       32.1392       71.6338      
353           8.34434       32.1392       71.6298      
354           8.34414       32.1393       71.6258      
355           8.34401       32.1394       71.6218      
356           8.34384       32.1397       71.6178      
357           8.34371       32.1401       71.6138      
358           8.34362       32.1407       71.6097      
359           8.34354       32.1414       71.6057      
360           8.34338       32.1422       71.6016      
361           8.34315       32.1431       71.5975      
362           8.34287       32.1439       71.5933      
363           8.34269       32.1447       71.5891      
364           8.34255       32.1454       71.5848      
365           8.34252       32.1461       71.5805      
366           8.34246       32.1468       71.5762      
367           8.34237       32.1474       71.5719      
368           8.34216       32.148        71.5675      
369           8.34189       32.1486       71.563       
370           8.3416        32.1493       71.5585      
371           8.34141       32.15         71.5538      
372           8.34119       32.1508       71.5491      
373           8.34105       32.1517       71.5444      
374           8.34092       32.1526       71.5396      
375           8.34086       32.1535       71.5349      
376           8.34065       32.1544       71.5301      
377           8.34042       32.1554       71.5253      
378           8.34013       32.1563       71.5204      
379           8.33986       32.1572       71.5155      
380           8.33963       32.1581       71.5104      
381           8.33948       32.159        71.5052      
382           8.33935       32.1598       71.5         
383           8.33924       32.1606       71.4947      
384           8.33902       32.1614       71.4893      
385           8.33884       32.1621       71.484       
386           8.33865       32.1628       71.4786      
387           8.33848       32.1635       71.4733      
388           8.33823       32.1641       71.4679      
389           8.33802       32.1648       71.4625      
390           8.33783       32.1655       71.4571      
391           8.33766       32.1662       71.4516      
392           8.33742       32.1669       71.446       
393           8.33718       32.1677       71.4404      
394           8.33692       32.1684       71.4347      
395           8.33677       32.1693       71.4289      
396           8.33651       32.1701       71.4231      
397           8.33623       32.1709       71.4172      
398           8.33588       32.1718       71.4112      
399           8.33559       32.1726       71.4051      
400           8.33531       32.1734       71.399       
401           8.33509       32.1742       71.3928      
402           8.33487       32.1749       71.3867      
403           8.33467       32.1756       71.3805      
404           8.33438       32.1762       71.3743      
405           8.33414       32.1768       71.3682      
406           8.33386       32.1775       71.3622      
407           8.33363       32.1782       71.3561      
408           8.33327       32.1789       71.3499      
409           8.33288       32.1797       71.3437      
410           8.33251       32.1804       71.3373      
411           8.33218       32.1812       71.3307      
412           8.33182       32.182        71.3241      
413           8.33159       32.1826       71.3175      
414           8.33143       32.1832       71.3109      
415           8.33135       32.1837       71.3044      
416           8.33115       32.1841       71.2979      
417           8.33089       32.1846       71.2913      
418           8.33057       32.185        71.2846      
419           8.33031       32.1855       71.2777      
420           8.32999       32.1861       71.2706      
421           8.32971       32.1868       71.2634      
422           8.3295        32.1875       71.2561      
423           8.32929       32.1882       71.2487      
424           8.32895       32.1888       71.2413      
425           8.3286        32.1894       71.2339      
426           8.32825       32.1899       71.2265      
427           8.32797       32.1903       71.2192      
428           8.32772       32.1907       71.2118      
429           8.32757       32.1912       71.2044      
430           8.32738       32.1917       71.197       
431           8.32712       32.1924       71.1896      
432           8.32664       32.1931       71.1821      
433           8.32615       32.194        71.1746      
434           8.32574       32.1949       71.1671      
435           8.32545       32.1958       71.1596      
436           8.32514       32.1967       71.152       
437           8.32484       32.1976       71.1443      
438           8.32455       32.1984       71.1366      
439           8.32423       32.1991       71.1287      
440           8.32383       32.1998       71.1207      
441           8.32345       32.2004       71.1126      
442           8.32316       32.201        71.1044      
443           8.323         32.2017       71.0963      
444           8.32273       32.2023       71.0882      
445           8.32239       32.203        71.0801      
446           8.32205       32.2038       71.0721      
447           8.32166       32.2046       71.064       
448           8.32122       32.2054       71.0559      
449           8.32085       32.2063       71.0475      
450           8.32056       32.2072       71.0389      
451           8.32022       32.2081       71.0301      
452           8.31976       32.2089       71.0211      
453           8.3193        32.2098       71.0119      
454           8.31894       32.2106       71.0028      
455           8.31868       32.2115       70.9936      
456           8.31838       32.2123       70.9845      
457           8.31798       32.2131       70.9756      
458           8.31762       32.214        70.9667      
459           8.3173        32.215        70.958       
460           8.3169        32.216        70.9494      
461           8.3165        32.2171       70.9408      
462           8.31612       32.2183       70.9322      
463           8.31573       32.2196       70.9235      
464           8.3153        32.2209       70.9148      
465           8.31492       32.2223       70.9059      
466           8.31465       32.2237       70.8967      
467           8.31444       32.2251       70.8873      
468           8.31405       32.2265       70.8776      
469           8.31353       32.2279       70.8676      
470           8.31304       32.2292       70.8574      
471           8.31264       32.2305       70.8473      
472           8.31223       32.2317       70.8373      
473           8.31193       32.233        70.8276      
474           8.3117        32.2343       70.8182      
475           8.31138       32.2357       70.809       
476           8.31091       32.2372       70.7998      
477           8.31041       32.2388       70.7906      
478           8.31003       32.2404       70.7814      
479           8.30973       32.2421       70.772       
480           8.30933       32.2439       70.7621      
481           8.3088        32.2457       70.7518      
482           8.30829       32.2474       70.741       
483           8.30784       32.249        70.7298      
484           8.30743       32.2505       70.7184      
485           8.30715       32.252        70.7072      
486           8.30701       32.2534       70.6963      
487           8.30672       32.2549       70.6859      
488           8.30626       32.2565       70.6758      
489           8.30574       32.2582       70.6658      
490           8.30532       32.2601       70.6558      
491           8.305         32.2621       70.6458      
492           8.30459       32.2643       70.6356      
493           8.30409       32.2665       70.6254      
494           8.3037        32.2688       70.615       
495           8.3034        32.271        70.6044      
496           8.30306       32.2733       70.5936      
497           8.30279       32.2756       70.5825      
498           8.30253       32.2778       70.5711      
499           8.30209       32.2801       70.5595      
500           8.30154       32.2824       70.5481      
501           8.30101       32.2848       70.5368      
502           8.30063       32.2872       70.5257      
503           8.30037       32.2898       70.5147      
504           8.30004       32.2925       70.5038      
505           8.29967       32.2952       70.4927      
506           8.29936       32.298        70.4815      
507           8.29908       32.3008       70.4702      
508           8.29872       32.3036       70.4587      
509           8.29838       32.3064       70.4473      
510           8.29806       32.3092       70.4359      
511           8.29767       32.3121       70.4245      
512           8.29718       32.3151       70.4131      
513           8.29675       32.3182       70.4017      
514           8.29647       32.3213       70.3903      
515           8.29628       32.3245       70.3788      
516           8.29594       32.3277       70.367       
517           8.29545       32.331        70.3547      
518           8.29495       32.3343       70.3418      
519           8.2945        32.3377       70.3284      
520           8.29407       32.341        70.3152      
521           8.29375       32.3443       70.3028      
522           8.29341       32.3475       70.2912      
523           8.29298       32.3509       70.2803      
524           8.29246       32.3545       70.2693      
525           8.29196       32.3584       70.2577      
526           8.29152       32.3625       70.2447      
527           8.29116       32.3668       70.2305      
528           8.29069       32.3709       70.2158      
529           8.28982       32.3748       70.2018      
530           8.28935       32.3786       70.1889      
531           8.28892       32.3824       70.1769      
532           8.28848       32.3864       70.1652      