# Probe 0 (-1 0 0)
# Probe 1 (1 0 0)
# Probe 2 (1.7 0 0)
# Time        0             1             2            
0             0             0             0            
1             1.19961       -0.416492     -0.820472    
2             2145.41       -379.289      -1539.33     
3             2110.16       -425.977      -1616.29     
4             338.746       -180.911      -662.886     
5             -1267.94      9.85322       76.3698      
6             -1283.56      0.619053      81.8191      
7             -154.393      -122.619      -362.203     
8             739.106       -185.628      -667.894     
9             705.061       -159.641      -653.246     
10            103.631       -94.599       -445.982     
11            -395.797      -55.297       -283.005     
12            -390.235      -58.2687      -269.479     
13            -67.3929      -83.4846      -358.782     
14            201.006       -100.035      -434.087     
15            221.511       -97.845       -435.532     
16            74.7274       -85.9292      -387.349     
17            -56.8984      -78.8194      -349.07      
18            -81.5137      -77.8384      -337.551     
19            -19.423       -84.8389      -354.785     
20            51.6267       -92.683       -371.881     
21            69.7761       -96.8005      -374.678     
22            56.4303       -95.9792      -361.481     
23            27.3804       -89.7377      -337.217     
24            8.41283       -81.3334      -313.972     
25            9.08484       -76.6332      -305.29      
26            18.9934       -75.1538      -307.636     
27            28.0996       -73.4987      -310.866     
28            35.1567       -66.8941      -304.362     
29            34.6137       -53.6641      -285.625     
30            28.5919       -37.6246      -263.756     
31            23.031        -23.5986      -245.386     
32            18.4077       -12.1213      -231.952     
33            16.7381       -3.51033      -222.852     
34            17.4734       1.64382       -218.715     
35            19.9564       9.30549       -210.028     
36            26.0274       22.317        -186.362     
37            26.7664       25.8373       -175.587     
38            25.217        27.035        -164.977     
39            22.0164       27.9621       -153.619     
40            18.2176       29.804        -139.919     
41            13.4716       36.9384       -115.091     
42            14.3797       37.601        -99.714      
43            18.1471       43.0591       -74.2185     
44            20.0271       40.8197       -58.4776     
45            22.0155       43.4604       -33.5225     
46            21.1768       39.4413       -18.926      
47            19.4168       35.5677       -1.49748     
48            17.1629       38.3621       23.2799      
49            16.8742       34.2629       41.2201      
50            17.3097       32.8481       62.3913      
51            17.9886       35.0329       89.8473      
52            18.5476       37.4718       115.225      
53            18.6505       36.1662       129.081      
54            18.4635       30.6749       131.245      
55            18.1988       21.2103       127.588      
56            17.9576       9.18372       120.102      
57            17.7823       -2.58692      109.995      
58            17.6428       -12.5891      95.7381      
59            17.505        -17.5944      78.2595      
60            17.5239       -17.5763      67.2285      
61            17.5621       -15.4265      58.4058      
62            17.636        -10.2796      50.3264      
63            17.7836       -1.6012       44.9459      
64            18.0281       9.71557       44.117       
65            18.2567       20.6678       46.7023      
66            18.4134       29.6075       49.3709      
67            18.5098       37.0003       50.8689      
68            18.5435       42.5576       51.116       
69            18.5427       45.3017       50.9389      
70            18.5185       45.1837       51.4519      
71            18.4888       42.6532       53.3305      
72            18.4683       37.4523       56.7285      
73            18.452        30.3411       61.1532      
74            18.4202       22.8842       66.1106      
75            18.3679       16.2311       71.4444      
76            18.3473       10.7065       76.3645      
77            18.3575       5.8188        79.9415      
78            18.4153       1.65781       82.2183      
79            18.5082       -0.700432     83.5231      
80            18.6134       -0.280984     84.2843      
81            18.704        2.72933       85.0323      
82            18.7725       7.47656       86.2515      
83            18.8266       12.4192       88.3488      
84            18.9034       16.0357       92.3994      
85            18.9271       16.5094       95.2596      
86            18.9222       14.4917       94.963       
87            18.895        11.3252       93.1732      
88            18.8014       7.65975       89.3379      
89            18.587        4.07421       82.4771      
90            18.4393       2.08306       76.0544      
91            18.4079       1.91896       73.128       
92            18.4426       2.4806        71.2111      
93            18.6125       3.62722       70.7976      
94            18.9206       5.14548       74.1042      
95            19.1106       6.15778       78.8615      
96            19.1503       6.20284       81.9131      
97            19.1053       5.82312       84.1265      
98            18.9878       5.38565       84.9891      
99            18.8258       5.19651       83.8765      
100           18.6474       5.35723       80.4092      
101           18.4666       5.66686       74.6866      
102           18.4164       5.89457       68.741       
103           18.4733       5.98315       63.952       
104           18.5953       6.00347       59.9855      
105           18.7552       6.07306       56.7905      
106           18.898        6.35304       54.5697      
107           18.9948       6.94969       53.5395      
108           19.0493       7.97586       53.5229      
109           19.059        9.40934       54.0297      
110           19.0369       10.9223       54.3812      
111           19.002        12.1351       53.749       
112           18.9164       12.6356       50.5645      
113           18.7706       11.5902       44.2184      
114           18.6845       9.58128       37.8245      
115           18.6771       7.91554       33.9455      
116           18.7139       7.2363        32.5046      
117           18.7873       7.42047       32.3213      
118           18.8764       8.07826       32.4562      
119           18.9471       8.80531       32.5878      
120           18.9738       9.48879       32.8762      
121           18.9654       10.2697       33.5037      
122           18.936        11.3001       34.4831      
123           18.8958       12.5725       35.6874      
124           18.8611       13.8241       36.7898      
125           18.8375       14.7868       37.6427      
126           18.8122       15.4066       38.3689      
127           18.7712       15.4409       38.3463      
128           18.7635       14.5932       37.4398      
129           18.7859       13.3484       36.7075      
130           18.8173       12.2605       36.7252      
131           18.8667       11.193        37.4231      
132           18.9296       10.2686       38.7624      
133           18.9853       9.67195       40.2969      
134           19.0174       9.36189       41.4768      
135           19.0277       9.16611       42.1827      
136           19.0297       8.99925       42.638       
137           19.0282       8.90661       43.0547      
138           19.0283       9.0145        43.5589      
139           19.0341       9.41996       44.1463      
140           19.0432       10.1061       44.7642      
141           19.0529       10.9736       45.4305      
142           19.0675       11.8992       46.1935      
143           19.087        12.7561       47.1155      
144           19.1145       13.4337       48.1543      
145           19.1498       13.8691       49.1419      
146           19.187        14.0455       49.8985      
147           19.2238       13.9703       50.3168      
148           19.2586       13.6324       50.3189      
149           19.2902       13.0373       49.9499      
150           19.3181       12.2428       49.3693      
151           19.3423       11.3596       48.7788      
152           19.3634       10.5161       48.3335      
153           19.3828       9.79603       48.0906      
154           19.4009       9.26511       48.084       
155           19.4176       9.0078        48.3568      
156           19.4323       9.04267       48.8929      
157           19.4451       9.31515       49.6153      
158           19.4569       9.72668       50.3939      
159           19.4686       10.1873       51.113       
160           19.4811       10.6518       51.7238      
161           19.4942       11.1036       52.2264      
162           19.5071       11.5294       52.6418      
163           19.5193       11.9069       52.9884      
164           19.5336       12.269        53.3686      
165           19.552        12.6297       53.8908      
166           19.5689       12.8761       54.4377      
167           19.5841       12.9624       54.9198      
168           19.5983       12.9018       55.2862      
169           19.6096       12.7338       55.5266      
170           19.6183       12.4945       55.6592      
171           19.6247       12.2052       55.7169      
172           19.6301       11.8804       55.732       
173           19.635        11.5448       55.7383      
174           19.6399       11.2376       55.7726      
175           19.6447       10.9962       55.8638      
176           19.6491       10.8434       56.0265      
177           19.653        10.7884       56.2716      
178           19.656        10.8405       56.6496      
179           19.659        11.0115       57.1896      
180           19.6614       11.2214       57.6322      
181           19.6645       11.404        57.9252      
182           19.6688       11.5587       58.1382      
183           19.6741       11.6978       58.3154      
184           19.68         11.8358       58.49        
185           19.6851       11.9814       58.6815      
186           19.6895       12.1341       58.8946      
187           19.6933       12.2821       59.1215      
188           19.6963       12.3996       59.3295      
189           19.6983       12.4663       59.4895      
190           19.6998       12.4818       59.5955      
191           19.7009       12.4567       59.6506      
192           19.7013       12.4038       59.6637      
193           19.7013       12.3342       59.6491      
194           19.7009       12.2565       59.6243      
195           19.7004       12.1785       59.6078      
196           19.7          12.1072       59.6192      
197           19.6999       12.0523       59.6911      
198           19.7004       12.0306       59.8082      
199           19.7014       12.0345       59.8966      
200           19.7028       12.0407       59.937       
201           19.7046       12.0374       59.9357      
202           19.7063       12.0275       59.9151      
203           19.7081       12.0261       59.9111      
204           19.7094       12.0492       59.9453      
205           19.7099       12.1001       60.0079      
206           19.7099       12.1653       60.067       
207           19.7093       12.2282       60.1013      
208           19.7084       12.2806       60.1081      
209           19.7076       12.3205       60.0974      
210           19.7069       12.3495       60.0851      
211           19.7064       12.3743       60.0875      
212           19.7063       12.4017       60.1084      
213           19.7063       12.4347       60.1429      
214           19.7063       12.4698       60.1805      
215           19.7063       12.4843       60.1911      
216           19.7063       12.5138       60.2069      
217           19.7063       12.5187       60.2051      
218           19.7064       12.518        60.1979      
219           19.7066       12.5131       60.1891      
220           19.7067       12.5076       60.189       
221           19.7069       12.5066       60.2132      
222           19.707        12.5148       60.2677      
223           19.7069       12.5312       60.3381      
224           19.7067       12.552        60.4089      
225           19.7065       12.5742       60.4731      
226           19.7062       12.5952       60.5257      
227           19.7059       12.6121       60.5633      
228           19.7058       12.6232       60.5861      
229           19.7057       12.6287       60.5982      
230           19.7056       12.6304       60.6061      
231           19.7055       12.6311       60.6172      
232           19.7051       12.6343       60.6384      
233           19.7044       12.6432       60.6742      
234           19.7035       12.6595       60.724       
235           19.7025       12.6818       60.7807      
236           19.7015       12.7069       60.8352      
237           19.7007       12.731        60.8811      
238           19.7001       12.7506       60.9145      
239           19.6997       12.7634       60.9356      
240           19.6996       12.7691       60.9476      
241           19.6996       12.7701       60.9558      
242           19.6996       12.7697       60.9659      
243           19.6995       12.7718       60.9825      
244           19.6992       12.7788       61.0076      
245           19.6988       12.7911       61.0411      
246           19.6984       12.8074       61.08        
247           19.6981       12.8246       61.1198      
248           19.6978       12.8397       61.1563      
249           19.6978       12.8513       61.1879      
250           19.6978       12.8592       61.215       
251           19.6978       12.8646       61.2403      
252           19.6976       12.8691       61.2658      
253           19.6974       12.8742       61.2929      
254           19.697        12.881        61.3219      
255           19.6966       12.8896       61.3519      
256           19.6961       12.8995       61.3816      
257           19.6958       12.9099       61.4104      
258           19.6955       12.9196       61.4382      
259           19.6953       12.928        61.4651      
260           19.6951       12.9351       61.4921      
261           19.6949       12.9414       61.5199      
262           19.6944       12.9479       61.5485      
263           19.6938       12.9554       61.5774      
264           19.6933       12.9642       61.6059      
265           19.6929       12.974        61.6331      
266           19.6925       12.9839       61.6588      
267           19.6922       12.9933       61.6834      
268           19.6919       13.0019       61.7073      
269           19.6917       13.0097       61.7304      
270           19.6915       13.0172       61.7522      
271           19.6913       13.0248       61.7727      
272           19.6909       13.0329       61.7927      
273           19.6906       13.0413       61.8122      
274           19.6903       13.0498       61.8309      
275           19.69         13.0579       61.8488      
276           19.6897       13.0658       61.8664      
277           19.6895       13.0735       61.8838      
278           19.6893       13.081        61.9009      
279           19.6892       13.0884       61.9176      
280           19.689        13.0956       61.9339      
281           19.6888       13.1025       61.9496      
282           19.6885       13.109        61.9639      
283           19.6883       13.115        61.9771      
284           19.688        13.1207       61.9897      
285           19.6877       13.1262       62.0018      
286           19.6874       13.1313       62.0132      
287           19.6872       13.1361       62.0244      
288           19.687        13.1407       62.0355      
289           19.6868       13.1454       62.0472      
290           19.6866       13.1459       62.048       
291           19.6864       13.1517       62.0581      
292           19.686        13.1586       62.0741      
293           19.6858       13.1589       62.0757      
294           19.6854       13.1657       62.0995      
295           19.685        13.1729       62.1235      
296           19.6849       13.1738       62.1263      
297           19.6846       13.1794       62.1374      
298           19.6843       13.1848       62.1462      
299           19.6841       13.1894       62.1543      
300           19.6839       13.1895       62.1543      
301           19.6835       13.1928       62.1608      
302           19.683        13.1964       62.17        
303           19.6828       13.1963       62.1703      
304           19.6824       13.1998       62.1817      
305           19.682        13.2042       62.1965      
306           19.6818       13.2046       62.1985      
307           19.6816       13.2102       62.2122      
308           19.6812       13.2164       62.2265      
309           19.6811       13.2175       62.2289      
310           19.6807       13.224        62.2411      
311           19.6805       13.2251       62.2427      
312           19.6799       13.2324       62.2545      
313           19.6797       13.2331       62.2553      
314           19.6792       13.2408       62.274       
315           19.6791       13.241        62.2757      
316           19.6789       13.2412       62.2775      
317           19.6789       13.2479       62.2973      
318           19.6788       13.2488       62.2993      
319           19.6787       13.2503       62.301       
320           19.6784       13.2622       62.319       
321           19.6783       13.2638       62.3206      
322           19.678        13.2654       62.3219      
323           19.6773       13.2751       62.335       
324           19.6769       13.276        62.3354      
325           19.6767       13.2767       62.3349      
326           19.6762       13.2832       62.3444      
327           19.6761       13.2834       62.344       
328           19.676        13.2835       62.3439      
329           19.6758       13.289        62.356       
330           19.6756       13.2897       62.3569      
331           19.6755       13.2909       62.3579      
332           19.6748       13.2998       62.3693      
333           19.6745       13.3012       62.3701      
334           19.6741       13.3027       62.3705      
335           19.6737       13.3042       62.3701      
336           19.6729       13.3143       62.3782      
337           19.6727       13.3146       62.3774      
338           19.6727       13.3141       62.3766      
339           19.6727       13.3133       62.3757      
340           19.6728       13.3125       62.3743      
341           19.6728       13.3172       62.3905      
342           19.6727       13.3173       62.3918      
343           19.6724       13.3178       62.3946      
344           19.672        13.319        62.398       
345           19.6715       13.321        62.4011      
346           19.6704       13.3302       62.4101      
347           19.67         13.3321       62.4105      
348           19.6696       13.3334       62.4094      
349           19.6694       13.3343       62.407       
350           19.6693       13.3346       62.4033      
351           19.6686       13.339        62.4021      
352           19.6685       13.3379       62.4006      
353           19.6684       13.3362       62.4005      
354           19.6681       13.3343       62.401       
355           19.6677       13.3327       62.4019      
356           19.6668       13.3334       62.412       
357           19.6664       13.3341       62.4145      
358           19.666        13.336        62.4177      
359           19.6657       13.3392       62.4213      
360           19.6655       13.3435       62.4246      
361           19.6653       13.3484       62.4272      
362           19.6652       13.366        62.4392      
363           19.6652       13.3678       62.4401      
364           19.6652       13.3675       62.44        
365           19.665        13.3658       62.439       
366           19.6647       13.3631       62.4373      
367           19.6643       13.3604       62.4353      
368           19.6638       13.3584       62.4336      
369           19.6633       13.3578       62.433       
370           19.6628       13.3587       62.4336      
371           19.6625       13.361        62.4354      
372           19.6622       13.3646       62.4379      
373           19.662        13.3691       62.441       
374           19.6619       13.3741       62.444       
375           19.6618       13.3789       62.4468      
376           19.6615       13.383        62.449       
377           19.6613       13.3859       62.4503      
378           19.6609       13.3875       62.4509      
379           19.6604       13.388        62.4508      
380           19.6599       13.3876       62.4503      
381           19.6594       13.3868       62.4498      
382           19.6589       13.3861       62.4495      
383           19.6586       13.3858       62.4496      
384           19.6583       13.3863       62.45        
385           19.6582       13.3876       62.4509      
386           19.658        13.3895       62.4522      
387           19.6579       13.3918       62.4538      
388           19.6576       13.3942       62.4557      
389           19.6572       13.3965       62.4578      
390           19.6565       13.3986       62.4598      
391           19.6558       13.4002       62.4616      
392           19.6549       13.4015       62.4628      
393           19.6541       13.4025       62.4635      
394           19.6534       13.4034       62.4636      
395           19.6529       13.4041       62.4633      
396           19.6526       13.4047       62.4627      
397           19.6526       13.4052       62.4618      
398           19.6527       13.4057       62.4608      
399           19.6528       13.406        62.4599      
400           19.6528       13.4062       62.4591      
401           19.6526       13.4063       62.4588      
402           19.6521       13.4066       62.4589      
403           19.6511       13.407        62.4596      
404           19.6499       13.4077       62.4607      
405           19.6489       13.4088       62.462       
406           19.6478       13.4103       62.4634      
407           19.647        13.4122       62.4647      
408           19.6464       13.4144       62.4661      
409           19.6461       13.4166       62.4675      
410           19.6459       13.4188       62.4689      
411           19.6459       13.4208       62.4703      
412           19.6458       13.4225       62.4714      
413           19.6458       13.4239       62.4724      
414           19.6455       13.425        62.4732      
415           19.6451       13.4259       62.4739      
416           19.6443       13.4269       62.4749      
417           19.6434       13.428        62.4761      
418           19.6425       13.4293       62.4776      
419           19.6417       13.4308       62.4791      
420           19.641        13.4326       62.4807      
421           19.6407       13.4344       62.4822      
422           19.6405       13.4363       62.4836      
423           19.6405       13.4382       62.485       
424           19.6406       13.44         62.4862      
425           19.6407       13.4416       62.4873      
426           19.6405       13.443        62.4881      
427           19.6402       13.4441       62.4886      
428           19.6397       13.4452       62.4889      
429           19.6391       13.446        62.489       
430           19.6383       13.4468       62.4891      
431           19.6375       13.4475       62.4891      
432           19.6368       13.4481       62.489       
433           19.6363       13.4487       62.4887      
434           19.6358       13.4493       62.4883      
435           19.6356       13.4498       62.4878      
436           19.6353       13.4503       62.4872      
437           19.6351       13.4508       62.4868      
438           19.6349       13.4513       62.4864      
439           19.6345       13.4517       62.4861      
440           19.6341       13.4522       62.4857      
441           19.6335       13.4526       62.4853      
442           19.6328       13.453        62.4849      
443           19.6322       13.4535       62.4845      
444           19.6315       13.4539       62.4844      
445           19.6309       13.4543       62.4844      
446           19.6304       13.4548       62.4845      
447           19.6299       13.4553       62.4846      
448           19.6293       13.4559       62.4847      
449           19.6286       13.4565       62.4848      
450           19.6279       13.4572       62.4849      
451           19.6272       13.458        62.4853      
452           19.6263       13.4589       62.4858      
453           19.6254       13.4598       62.4865      
454           19.6244       13.4608       62.4873      
455           19.6235       13.4618       62.4881      
456           19.6227       13.4629       62.4888      
457           19.6219       13.4641       62.4896      
458           19.6212       13.4652       62.4906      
459           19.6207       13.4665       62.4916      
460           19.6203       13.4677       62.4926      
461           19.6201       13.4689       62.4935      
462           19.6198       13.4701       62.4944      
463           19.6196       13.4713       62.4952      
464           19.6193       13.4726       62.496       
465           19.619        13.4739       62.4971      
466           19.6186       13.4752       62.4982      
467           19.6183       13.4766       62.4993      
468           19.6179       13.478        62.5004      
469           19.6175       13.4794       62.5013      
470           19.617        13.4808       62.502       
471           19.6166       13.4821       62.5026      
472           19.6161       13.4833       62.5032      
473           19.6156       13.4844       62.5037      
474           19.6151       13.4855       62.5042      
475           19.6146       13.4864       62.5046      
476           19.6141       13.4873       62.5049      
477           19.6136       13.488        62.505       
478           19.6131       13.4887       62.505       
479           19.6127       13.4892       62.5051      
480           19.6122       13.4897       62.5051      
481           19.6117       13.4902       62.5052      
482           19.6112       13.4905       62.5051      
483           19.6107       13.4909       62.505       
484           19.6102       13.4911       62.5048      
485           19.6097       13.4913       62.5045      
486           19.6091       13.4915       62.5044      
487           19.6085       13.4916       62.5045      
488           19.6079       13.4917       62.5045      
489           19.6074       13.4918       62.5046      
490           19.6068       13.4918       62.5047      
491           19.6063       13.492        62.5048      
492           19.6057       13.4921       62.5049      
493           19.6049       13.4923       62.5052      
494           19.6041       13.4926       62.5057      
495           19.6033       13.493        62.5062      
496           19.6024       13.4934       62.5068      
497           19.6015       13.4939       62.5074      
498           19.6005       13.4945       62.508       
499           19.5995       13.4951       62.5087      
500           19.5986       13.4959       62.5096      
