# Probe 0 (3 1.5 2.5)
# Probe 1 (4.99 1.5 3.05)
# Probe 2 (5.7 1.5 2.5)
# Time        0             1             2            
0             0             0             0            
1             0.459955      -0.0607641    -0.675494    
2             1244.61       -73.2431      -1561.83     
3             1236.73       -105.224      -1625.73     
4             246.572       -90.1443      -649.778     
5             -812.87       -89.1285      81.4952      
6             -855.214      -108.854      41.0666      
7             -131.888      -126.272      -404.708     
8             499.599       -124.962      -705.916     
9             540.401       -106.479      -675.311     
10            191.9         -79.9677      -463.047     
11            -160.263      -52.4738      -288.088     
12            -249.012      -27.0869      -272.736     
13            -99.4911      -3.30612      -356.353     
14            84.4465       25.148        -430.792     
15            165.632       63.2874       -421.123     
16            115.854       108.599       -351.071     
17            19.3776       149.053       -279.077     
18            -39.7469      179.23        -237.348     
19            -29.0788      199.874       -221.223     
20            14.9723       212.721       -220.758     
21            53.8259       221.633       -202.086     
22            66.6674       227.007       -160.744     
23            52.5872       230.066       -107.74      
24            27.6765       229.851       -62.3922     
25            10.6078       223.287       -37.1157     
26            13.4312       209.057       -24.5997     
27            19.6702       187.313       -19.0355     
28            29.0607       162.774       -12.0593     
29            40.9031       145.735       9.49615      
30            39.7677       137.784       24.3778      
31            35.7484       139.553       34.9391      
32            31.483        150.312       41.418       
33            26.4609       169.295       38.6542      
34            22.6456       194.39        28.9679      
35            22.171        219.686       21.7445      
36            22.9849       240.431       18.7964      
37            23.8972       252.014       19.6242      
38            24.5834       254.383       23.7321      
39            24.9181       243.187       27.2909      
40            24.9333       218.444       27.9012      
41            24.9682       181.602       29.2909      
42            25.2744       142.829       32.3731      
43            25.6782       115.765       35.8105      
44            25.9555       108.346       37.864       
45            25.9687       120.463       35.9784      
46            25.5622       145.541       29.8195      
47            24.0444       170.757       25.0193      
48            21.961        181.538       26.9811      
49            20.7653       169.251       32.8115      
50            20.5997       137.498       38.6262      
51            20.9555       97.722        42.8916      
52            21.652        62.9658       43.4314      
53            22.4104       41.9656       40.0262      
54            23.0029       37.0691       34.4145      
55            23.4042       47.5853       28.5934      
56            23.6824       74.3182       23.7271      
57            23.8226       112.516       20.1295      
58            23.8167       149.482       17.6633      
59            23.7106       173.956       15.8568      
60            23.4629       181.614       14.1067      
61            22.8135       176.413       14.0392      
62            21.9451       165.296       16.9123      
63            21.5016       153.046       19.1237      
64            21.4253       141.416       20.0071      
65            21.5472       131.776       19.4854      
66            21.8789       126.465       15.8424      
67            22.3402       127.565       9.98789      
68            22.765        135.632       4.68926      
69            22.966        148.428       1.99944      
70            23.0838       161.756       0.494488     
71            23.2268       170.521       0.567137     
72            23.4362       171.009       3.20324      
73            23.5477       162.627       6.96514      
74            23.5244       148.126       8.81748      
75            23.4492       131.872       10.0737      
76            23.1626       116.917       11.5107      
77            22.5708       106.659       9.08375      
78            22.1517       103.28        4.83975      
79            22.0769       107.251       2.37811      
80            22.141        115.047       0.897494     
81            22.2747       123.446       0.00259583   
82            22.452        128.407       0.0484284    
83            22.6401       128.701       0.723287     
84            22.7814       125.61        1.58462      
85            22.8407       121.665       2.34559      
86            22.8389       119.166       3.0896       
87            22.8001       119.203       4.00509      
88            22.7512       121.619       5.15543      
89            22.6953       125.227       6.45425      
90            22.6363       128.418       7.63565      
91            22.5749       129.871       8.47995      
92            22.4889       129.092       8.89452      
93            22.3127       126.467       8.57636      
94            22.0464       122.945       7.01966      
95            21.8796       119.681       5.27552      
96            21.8457       117.581       4.31418      
97            21.8761       117.108       3.9554       
98            21.9492       118.259       4.09577      
99            22.0493       120.535       4.55629      
100           22.1661       123.024       5.1004       
101           22.2776       124.757       5.49819      
102           22.3689       125.153       5.63066      
103           22.4347       124.25        5.55777      
104           22.48         122.539       5.43624      
105           22.5065       120.632       5.40528      
106           22.5025       119           5.54049      
107           22.4663       117.84        5.81219      
108           22.4041       117.11        6.10619      
109           22.3203       116.632       6.34398      
110           22.2281       116.198       6.51397      
111           22.1391       115.655       6.64813      
112           22.0646       114.941       6.77508      
113           22.0159       114.136       6.80167      
114           21.9936       113.29        6.83247      
115           21.9851       112.513       6.94188      
116           21.9923       112.029       7.17763      
117           22.0224       111.926       7.52004      
118           22.0716       112.151       7.95307      
119           22.132        112.562       8.43424      
120           22.1874       112.98        8.89958      
121           22.2324       113.234       9.30416      
122           22.2697       113.2         9.66758      
123           22.2987       112.828       10.0923      
124           22.3087       112.103       10.6606      
125           22.2938       111.23        11.2387      
126           22.2582       110.312       11.7254      
127           22.2136       109.468       12.0867      
128           22.1676       108.775       12.3313      
129           22.1301       108.278       12.5251      
130           22.112        108           12.7519      
131           22.1159       107.936       13.0327      
132           22.1376       108.049       13.3157      
133           22.172        108.287       13.5607      
134           22.216        108.589       13.7605      
135           22.2662       108.899       13.9237      
136           22.3179       109.17        14.0739      
137           22.3658       109.37        14.2305      
138           22.4058       109.485       14.398       
139           22.4361       109.517       14.5752      
140           22.4584       109.472       14.7625      
141           22.4738       109.359       14.9562      
142           22.4829       109.19        15.1441      
143           22.4884       108.978       15.3118      
144           22.4939       108.743       15.4522      
145           22.5022       108.509       15.5666      
146           22.516        108.295       15.6609      
147           22.5362       108.118       15.7418      
148           22.5608       107.988       15.813       
149           22.5885       107.906       15.8755      
150           22.6198       107.871       15.9317      
151           22.653        107.874       15.9876      
152           22.6887       107.904       16.052       
153           22.725        107.947       16.1342      
154           22.7451       107.973       16.1695      
155           22.7662       107.997       16.2016      
156           22.7884       108           16.2371      
157           22.8128       107.967       16.3033      
158           22.8375       107.887       16.4099      
159           22.8579       107.762       16.5546      
160           22.8723       107.61        16.7236      
161           22.8831       107.451       16.8818      
162           22.8919       107.303       16.9943      
163           22.9          107.177       17.0465      
164           22.9084       107.081       17.0475      
165           22.9177       107.024       17.0111      
166           22.9279       107.013       16.9446      
167           22.9384       107.051       16.8641      
168           22.9485       107.131       16.796       
169           22.9576       107.243       16.7665      
170           22.9656       107.374       16.7908      
171           22.9728       107.508       16.8694      
172           22.98         107.634       16.9798      
173           22.9868       107.741       17.0874      
174           22.9934       107.822       17.1672      
175           23.0002       107.88        17.2092      
176           23.0069       107.917       17.2166      
177           23.0136       107.941       17.1988      
178           23.0197       107.959       17.1689      
179           23.0251       107.978       17.1394      
180           23.0294       108.003       17.1184      
181           23.0327       108.039       17.1088      
182           23.0351       108.085       17.1082      
183           23.0371       108.141       17.1125      
184           23.0388       108.201       17.1187      
185           23.04         108.263       17.1248      
186           23.041        108.322       17.131       
187           23.0417       108.374       17.1389      
188           23.0423       108.42        17.1493      
189           23.0432       108.46        17.1635      
190           23.0439       108.493       17.1856      
191           23.0442       108.52        17.2149      
192           23.0442       108.541       17.245       
193           23.044        108.549       17.2533      
194           23.0433       108.568       17.2702      
195           23.0426       108.584       17.273       
196           23.0426       108.589       17.269       
197           23.042        108.6         17.248       
198           23.0418       108.602       17.2374      
199           23.0411       108.612       17.212       
200           23.0409       108.613       17.2053      
201           23.0401       108.619       17.2159      
202           23.0399       108.618       17.2241      
203           23.0398       108.615       17.2384      
204           23.0401       108.616       17.3181      
205           23.04         108.609       17.3382      
206           23.0399       108.599       17.3572      
207           23.0398       108.587       17.3723      
208           23.0399       108.575       17.4007      
209           23.0398       108.563       17.4021      
210           23.0397       108.549       17.3984      
211           23.0395       108.532       17.3919      
212           23.0393       108.513       17.3844      
213           23.0391       108.495       17.3785      
214           23.0387       108.478       17.3771      
215           23.0385       108.462       17.3835      
216           23.0383       108.446       17.3988      
217           23.0381       108.43        17.4223      
218           23.0378       108.411       17.4507      
219           23.0377       108.391       17.4786      
220           23.0376       108.369       17.5035      
221           23.0376       108.347       17.5238      
222           23.0376       108.326       17.5389      
223           23.0375       108.306       17.5491      
224           23.0373       108.286       17.5556      
225           23.037        108.266       17.5594      
226           23.0365       108.246       17.5616      
227           23.0359       108.226       17.5628      
228           23.0354       108.206       17.563       
229           23.035        108.186       17.5624      
230           23.0347       108.167       17.5608      
231           23.0345       108.148       17.5587      
232           23.0342       108.129       17.5575      
233           23.034        108.112       17.5594      
234           23.0337       108.094       17.5655      
235           23.0332       108.078       17.5757      
236           23.0326       108.062       17.5886      
237           23.0321       108.045       17.6026      
238           23.0317       108.03        17.6162      
239           23.0315       108.015       17.6283      
240           23.0313       108           17.638       
241           23.031        107.986       17.6449      
242           23.0308       107.972       17.6488      
243           23.0305       107.959       17.6497      
244           23.0301       107.946       17.648       
245           23.0296       107.932       17.6443      
246           23.0291       107.919       17.6396      
247           23.0286       107.906       17.6372      
248           23.0283       107.894       17.6402      
249           23.0283       107.884       17.647       
250           23.0281       107.874       17.6553      
251           23.0281       107.865       17.6643      
252           23.028        107.855       17.6732      
253           23.0279       107.846       17.6813      
254           23.0279       107.838       17.6878      
255           23.0281       107.831       17.6916      
256           23.0281       107.824       17.692       
257           23.0282       107.818       17.6889      
258           23.0282       107.812       17.6836      
259           23.028        107.806       17.6784      
260           23.0279       107.801       17.6745      
261           23.0279       107.795       17.6722      
262           23.0279       107.79        17.6721      
263           23.028        107.786       17.6738      
264           23.0281       107.781       17.6771      
265           23.0281       107.778       17.6815      
266           23.028        107.774       17.6863      
267           23.0278       107.77        17.6906      
268           23.0275       107.766       17.6941      
269           23.0273       107.762       17.6963      
270           23.0271       107.758       17.6968      
271           23.0271       107.753       17.6959      
272           23.0271       107.749       17.6939      
273           23.0272       107.744       17.6914      
274           23.0271       107.739       17.6888      
275           23.0271       107.734       17.6865      
276           23.0271       107.729       17.6846      
277           23.0269       107.724       17.6835      
278           23.0267       107.72        17.6833      
279           23.0265       107.716       17.6837      
280           23.0263       107.713       17.6848      
281           23.0262       107.709       17.6861      
282           23.0261       107.706       17.6874      
283           23.026        107.702       17.6885      
284           23.026        107.699       17.6892      
285           23.026        107.696       17.6892      
286           23.026        107.693       17.6886      
287           23.0259       107.69        17.6875      
288           23.0258       107.688       17.6859      
289           23.0257       107.686       17.6843      
290           23.0255       107.685       17.6827      
291           23.0254       107.684       17.6812      
292           23.0253       107.683       17.68        
293           23.0253       107.683       17.6793      
294           23.0252       107.683       17.6789      
295           23.0251       107.684       17.679       
296           23.025        107.684       17.6793      
297           23.0249       107.684       17.6797      
298           23.0248       107.684       17.6803      
299           23.0248       107.683       17.6808      
300           23.0248       107.682       17.6811      
301           23.0247       107.681       17.6813      
302           23.0246       107.679       17.6813      
303           23.0245       107.677       17.681       
304           23.0244       107.676       17.6806      
305           23.0242       107.674       17.6801      
306           23.0241       107.673       17.6794      
307           23.024        107.671       17.6787      
308           23.024        107.67        17.678       
309           23.0239       107.669       17.6773      
310           23.0239       107.668       17.6767      
311           23.0238       107.667       17.6762      
312           23.0238       107.665       17.6758      
313           23.0236       107.663       17.6756      
314           23.0235       107.661       17.6754      
315           23.0233       107.659       17.6753      
316           23.0231       107.656       17.6753      
317           23.0229       107.654       17.6754      
318           23.0228       107.651       17.6754      
319           23.0226       107.649       17.6753      
320           23.0225       107.647       17.6753      
321           23.0224       107.644       17.6752      
322           23.0224       107.643       17.675       
323           23.0223       107.641       17.6748      
324           23.0222       107.639       17.6745      
325           23.0221       107.636       17.6741      
326           23.022        107.634       17.6737      
327           23.0219       107.632       17.6732      
328           23.0217       107.629       17.6727      
329           23.0216       107.626       17.6722      
330           23.0214       107.623       17.6716      
331           23.0212       107.62        17.671       
332           23.0211       107.617       17.6704      
333           23.021        107.614       17.6698      
334           23.0209       107.611       17.6691      
335           23.0208       107.608       17.6684      
336           23.0207       107.605       17.6677      
337           23.0206       107.602       17.667       
338           23.0205       107.598       17.6664      
339           23.0204       107.595       17.6658      
340           23.0203       107.592       17.6652      
341           23.02         107.589       17.6647      
342           23.0198       107.585       17.6642      
343           23.0196       107.582       17.6638      
344           23.0194       107.579       17.6634      
345           23.0193       107.575       17.663       
346           23.0192       107.571       17.6625      
347           23.0191       107.568       17.6621      
348           23.0189       107.564       17.6616      
349           23.0187       107.56        17.661       
350           23.0186       107.556       17.6604      
351           23.0184       107.552       17.6598      
352           23.0182       107.548       17.6591      
353           23.018        107.544       17.6585      
354           23.0178       107.541       17.6578      
355           23.0176       107.537       17.6572      
356           23.0174       107.533       17.6567      
357           23.0172       107.529       17.6562      
358           23.017        107.525       17.6557      
359           23.0168       107.521       17.6553      
360           23.0166       107.517       17.6548      
361           23.0165       107.513       17.6544      
362           23.0162       107.509       17.654       
363           23.016        107.505       17.6535      
364           23.0158       107.5         17.6531      
365           23.0156       107.496       17.6526      
366           23.0154       107.492       17.6521      
367           23.0152       107.488       17.6516      
368           23.015        107.484       17.6511      
369           23.0148       107.48        17.6505      
370           23.0147       107.476       17.6498      
371           23.0145       107.472       17.6492      
372           23.0142       107.468       17.6485      
373           23.014        107.463       17.6477      
374           23.0138       107.459       17.647       
375           23.0135       107.455       17.6462      
376           23.0132       107.451       17.6454      
377           23.0128       107.447       17.6447      
378           23.0125       107.443       17.644       
379           23.0122       107.439       17.6433      
380           23.012        107.435       17.6427      
381           23.0118       107.431       17.642       
382           23.0116       107.427       17.6413      
383           23.0114       107.423       17.6407      
384           23.0113       107.418       17.64        
385           23.0111       107.414       17.6393      
386           23.0108       107.41        17.6386      
387           23.0106       107.406       17.6379      
388           23.0103       107.401       17.6372      
389           23.01         107.397       17.6366      
390           23.0098       107.393       17.6359      
391           23.0096       107.389       17.6352      
392           23.0093       107.384       17.6345      
393           23.0091       107.38        17.6338      
394           23.009        107.375       17.6331      
395           23.0089       107.371       17.6324      
396           23.0088       107.366       17.6317      
397           23.0086       107.362       17.631       
398           23.0084       107.357       17.6303      
399           23.008        107.352       17.6296      
400           23.0077       107.348       17.6288      
401           23.0075       107.344       17.6282      
402           23.0072       107.339       17.6274      
403           23.0069       107.335       17.6267      
404           23.0066       107.331       17.626       
405           23.0064       107.327       17.6252      
406           23.0062       107.323       17.6245      
407           23.0061       107.318       17.6238      
408           23.0059       107.314       17.6231      
409           23.0057       107.309       17.6223      
410           23.0054       107.305       17.6216      
411           23.0051       107.3         17.6208      
412           23.0047       107.296       17.6201      
413           23.0044       107.292       17.6193      
414           23.0041       107.287       17.6185      
415           23.0037       107.283       17.6178      
416           23.0034       107.279       17.617       
417           23.0031       107.275       17.6162      
418           23.0028       107.27        17.6154      
419           23.0026       107.266       17.6147      
420           23.0023       107.261       17.6139      
421           23.0019       107.257       17.6131      
422           23.0016       107.252       17.6123      
423           23.0013       107.247       17.6116      
424           23.001        107.242       17.6108      
425           23.0007       107.238       17.6101      
426           23.0005       107.233       17.6094      
427           23.0002       107.228       17.6087      
428           22.9999       107.224       17.6081      
429           22.9995       107.22        17.6074      
430           22.9991       107.215       17.6067      
431           22.9987       107.211       17.606       
432           22.9984       107.206       17.6053      
433           22.9982       107.201       17.6046      
434           22.998        107.197       17.604       
435           22.9978       107.192       17.6033      
436           22.9976       107.187       17.6026      
437           22.9974       107.182       17.6019      
438           22.9971       107.177       17.6011      
439           22.9967       107.172       17.6004      
440           22.9963       107.167       17.5997      
441           22.996        107.162       17.599       
442           22.9957       107.157       17.5983      
443           22.9954       107.152       17.5976      
444           22.995        107.147       17.5968      
445           22.9947       107.142       17.5961      
446           22.9943       107.137       17.5954      
447           22.9939       107.132       17.5946      
448           22.9936       107.127       17.5938      
449           22.9933       107.122       17.5931      
450           22.993        107.116       17.5922      
451           22.9928       107.111       17.5915      
452           22.9925       107.106       17.5907      
453           22.9921       107.101       17.5899      
454           22.9917       107.096       17.5891      
455           22.9913       107.091       17.5883      
456           22.9909       107.086       17.5874      
457           22.9905       107.081       17.5866      
458           22.9901       107.076       17.5858      
459           22.9898       107.071       17.585       
460           22.9895       107.065       17.5841      
461           22.9891       107.06        17.5834      
462           22.9887       107.054       17.5825      
463           22.9883       107.048       17.5817      
464           22.9879       107.042       17.5809      
465           22.9875       107.036       17.5801      
466           22.9872       107.03        17.5792      
467           22.987        107.024       17.5784      
468           22.9868       107.019       17.5775      
469           22.9865       107.013       17.5767      
470           22.9862       107.007       17.5759      
471           22.9859       107.002       17.5751      
472           22.9855       106.996       17.5743      
473           22.985        106.99        17.5735      
474           22.9845       106.984       17.5727      
475           22.9842       106.978       17.5719      
476           22.9839       106.972       17.5711      
477           22.9836       106.966       17.5703      
478           22.9834       106.96        17.5695      
479           22.9831       106.953       17.5687      
480           22.9827       106.947       17.5678      
481           22.9823       106.941       17.567       
482           22.9819       106.935       17.5662      
483           22.9814       106.929       17.5653      
484           22.9809       106.923       17.5645      
485           22.9805       106.917       17.5636      
486           22.9802       106.91        17.5627      
487           22.9799       106.904       17.5619      
488           22.9796       106.898       17.561       
489           22.9794       106.892       17.5601      
490           22.9791       106.886       17.5592      
491           22.9785       106.879       17.5583      
492           22.9779       106.873       17.5574      
493           22.9772       106.866       17.5565      
494           22.9766       106.859       17.5556      
495           22.976        106.853       17.5547      
496           22.9755       106.846       17.5538      
497           22.975        106.839       17.5529      
498           22.9745       106.832       17.5519      
499           22.9741       106.825       17.551       
500           22.9736       106.818       17.55        
