# Probe 0 (-1 0 0)
# Probe 1 (1 0 0)
# Probe 2 (1.7 0 0)
# Time        0             1             2            
0             0             0             0            
1             0.471512      -0.202651     -0.669647    
2             1292.12       -253.143      -1384.1      
3             1237.95       -307.373      -1528.37     
4             171.643       -191.111      -720.043     
5             -904.563      -68.3466      0.321711     
6             -900.409      -34.6044      97.9816      
7             -131.572      -80.7408      -263.932     
8             491.626       -134.672      -610.659     
9             504.036       -152.446      -678.59      
10            115.272       -124.325      -473.19      
11            -239.685      -87.1899      -263.111     
12            -267.934      -61.2965      -182.83      
13            -74.1743      -56.2153      -249.011     
14            104.394       -62.0871      -354.353     
15            134.644       -59.8789      -383.32      
16            58.2263       -41.58        -312.465     
17            -38.7974      -13.4754      -212.506     
18            -66.8009      16.6277       -140.835     
19            -29.1074      40.4769       -120.963     
20            23.9353       51.6295       -131.584     
21            48.0572       50.5021       -136.491     
22            42.9954       42.8476       -110.167     
23            17.1292       37.9417       -57.3379     
24            -2.52051      40.7091       -2.62507     
25            -9.14589      51.5668       38.7193      
26            0.112117      58.9239       57.7915      
27            9.87595       54.4111       66.814       
28            21.9112       38.7275       73.2794      
29            25.0212       17.6516       82.6841      
30            21.4766       3.0846        91.6791      
31            14.2555       1.04032       100.92       
32            4.70043       11.3648       104.233      
33            0.559682      25.7138       96.9713      
34            3.45691       30.9264       88.9688      
35            9.32243       21.2686       84.2386      
36            15.9354       1.9606        86.6429      
37            18.5924       -12.419       96.5608      
38            16.4817       -12.0944      106.883      
39            12.0812       1.06797       110.906      
40            8.32312       17.7297       110.141      
41            6.14104       27.6137       104.667      
42            6.53046       26.6654       98.2994      
43            8.20429       16.6289       94.5116      
44            10.0468       3.53927       91.9702      
45            11.6986       -5.5103       88.6043      
46            13.0638       -6.74277      83.9877      
47            13.3787       -1.17882      79.5052      
48            12.7957       6.29357       76.8075      
49            11.7566       10.6538       77.0979      
50            10.5912       9.92263       80.2171      
51            9.88536       5.7468        84.9475      
52            9.65538       1.41606       89.1487      
53            9.70375       0.223617      91.0619      
54            10.2697       2.3919        90.9092      
55            10.9098       5.65089       88.4151      
56            11.1212       8.17212       85.4333      
57            11.1608       9.41242       84.6989      
58            11.1802       9.3653        86.6234      
59            11.2097       8.74303       89.6661      
60            11.2617       8.53661       91.5649      
61            11.261        9.4768        90.8627      
62            11.1863       11.757        87.6409      
63            11.0356       14.9601       83.196       
64            10.8852       18.039        79.1326      
65            10.8025       19.9605       76.194       
66            10.8577       20.4608       74.1165      
67            11.0669       20.1225       72.1866      
68            11.3568       19.6138       69.3712      
69            11.5848       19.2243       65.2435      
70            11.6339       18.9386       60.8351      
71            11.5002       18.6329       57.0407      
72            11.3119       18.3205       53.9604      
73            11.1659       18.2425       51.7976      
74            11.092        18.5349       50.8016      
75            11.0927       19.0472       50.7326      
76            11.1355       19.5319       51.0052      
77            11.2014       19.7953       51.269       
78            11.2593       19.7908       51.3936      
79            11.3018       19.6365       51.3674      
80            11.283        19.4557       51.7454      
81            11.2307       19.2689       52.7191      
82            11.1726       19.0417       53.9547      
83            11.1206       18.7919       55.1157      
84            11.0905       18.6727       55.863       
85            11.094        18.4719       55.7469      
86            11.1495       18.1356       55.0103      
87            11.1865       17.605        54.2177      
88            11.1927       17.0602       54.0977      
89            11.1805       16.7629       54.4976      
90            11.1651       16.5775       55.2991      
91            11.1569       16.4257       56.2636      
92            11.1515       16.2142       57.1613      
93            11.1523       15.8745       58.0052      
94            11.1594       15.3978       58.8581      
95            11.163        14.855        59.8025      
96            11.1622       14.3789       60.8384      
97            11.1593       14.0824       61.7705      
98            11.1665       13.9757       62.4013      
99            11.1794       13.9858       62.7268      
100           11.1943       14.0174       62.8231      
101           11.204        14.029        62.9487      
102           11.2087       14.0055       63.1496      
103           11.208        13.9672       63.4821      
104           11.204        13.9245       63.9456      
105           11.2          13.8666       64.5116      
106           11.1978       13.7791       65.1233      
107           11.1978       13.6668       65.7465      
108           11.1989       13.5697       66.4079      
109           11.2002       13.5477       67.1451      
110           11.2017       13.6293       67.8946      
111           11.2035       13.8084       68.58        
112           11.2067       14.1312       69.4992      
113           11.2097       14.3582       69.8304      
114           11.2143       14.5085       69.8999      
115           11.2215       14.5466       69.7685      
116           11.2296       14.5148       69.5828      
117           11.2345       14.4718       69.4571      
118           11.2393       14.4151       69.3655      
119           11.2444       14.3574       69.3433      
120           11.2557       14.2972       69.4357      
121           11.2701       14.3142       69.9047      
122           11.2791       14.3647       70.3349      
123           11.2856       14.4321       70.6962      
124           11.2908       14.4711       70.8707      
125           11.2989       14.4932       70.9312      
126           11.3117       14.5069       70.9332      
127           11.3252       14.5247       70.9372      
128           11.3394       14.548        70.9833      
129           11.3568       14.5773       71.1327      
130           11.3732       14.6165       71.3746      
131           11.3903       14.6574       71.6138      
132           11.4019       14.6817       71.7548      
133           11.4101       14.675        71.7646      
134           11.4172       14.6366       71.6798      
135           11.4232       14.5814       71.5724      
136           11.4288       14.5337       71.5298      
137           11.435        14.5329       71.6827      
138           11.4433       14.5883       71.9485      
139           11.4522       14.6588       72.142       
140           11.4551       14.6905       72.177       
141           11.4608       14.7083       72.1635      
142           11.4689       14.7026       72.0972      
143           11.4778       14.6726       72.0164      
144           11.4908       14.641        72.0226      
145           11.4959       14.6373       72.1274      
146           11.498        14.6604       72.2539      
147           11.4987       14.7021       72.3884      
148           11.4991       14.7476       72.5021      
149           11.5001       14.779        72.56        
150           11.5005       14.7856       72.5464      
151           11.5007       14.7703       72.48        
152           11.5018       14.7473       72.414       
153           11.5025       14.7371       72.4142      
154           11.503        14.7488       72.468       
155           11.5037       14.7743       72.5321      
156           11.5048       14.8082       72.6007      
157           11.5064       14.8437       72.6606      
158           11.5077       14.8711       72.688       
159           11.5094       14.879        72.6599      
160           11.5095       14.8671       72.5999      
161           11.5087       14.8523       72.5634      
162           11.5076       14.8488       72.565       
163           11.5058       14.8596       72.5922      
164           11.5043       14.8828       72.6355      
165           11.5029       14.9145       72.6866      
166           11.5017       14.9476       72.7318      
167           11.5004       14.9721       72.7527      
168           11.4998       14.9819       72.7446      
169           11.4994       14.9812       72.7227      
170           11.4992       14.9784       72.7054      
171           11.4989       14.9798       72.7032      
172           11.4987       14.9888       72.7207      
173           11.4984       15.0052       72.7569      
174           11.4985       15.0265       72.8039      
175           11.4982       15.0484       72.8484      
176           11.4979       15.0665       72.8785      
177           11.4975       15.0701       72.8816      
178           11.4967       15.0834       72.8812      
179           11.4958       15.0937       72.8783      
180           11.4954       15.0944       72.8744      
181           11.495        15.0952       72.8719      
182           11.4929       15.1074       72.9151      
183           11.4924       15.1101       72.9249      
184           11.4918       15.1141       72.9413      
185           11.4905       15.1413       73.0481      
186           11.4901       15.1462       73.0647      
187           11.4899       15.1515       73.0799      
188           11.4898       15.1571       73.094       
189           11.4897       15.1626       73.1069      
190           11.4895       15.1679       73.1188      
191           11.4892       15.1728       73.1297      
192           11.4889       15.1769       73.1402      
193           11.4886       15.1801       73.1521      
194           11.4885       15.1823       73.1673      
195           11.4883       15.1839       73.1877      
196           11.4881       15.1857       73.2141      
197           11.4878       15.1884       73.2454      
198           11.4877       15.1922       73.2789      
199           11.4876       15.1972       73.3125      
200           11.4876       15.203        73.3454      
201           11.4878       15.2093       73.3773      
202           11.4879       15.2154       73.4072      
203           11.4879       15.2207       73.4344      
204           11.4876       15.2252       73.4589      
205           11.4874       15.2287       73.4812      
206           11.4872       15.2316       73.502       
207           11.4871       15.234        73.5213      
208           11.4871       15.2363       73.5389      
209           11.4873       15.2387       73.555       
210           11.4877       15.2413       73.5702      
211           11.4879       15.2441       73.5848      
212           11.488        15.2467       73.5989      
213           11.488        15.2489       73.6127      
214           11.4879       15.2505       73.6268      
215           11.4879       15.2513       73.6419      
216           11.4879       15.2516       73.6586      
217           11.4877       15.2516       73.6767      
218           11.4875       15.2517       73.6954      
219           11.4874       15.2522       73.7138      
220           11.4874       15.2532       73.7317      
221           11.4875       15.2546       73.7489      
222           11.4876       15.2564       73.7653      
223           11.4877       15.2583       73.7807      
224           11.4877       15.26         73.7946      
225           11.4876       15.2613       73.8066      
226           11.4876       15.2622       73.8163      
227           11.4876       15.2624       73.8234      
228           11.4876       15.262        73.8279      
229           11.4875       15.2611       73.8302      
230           11.4875       15.2599       73.8312      
231           11.4876       15.2586       73.8322      
232           11.4877       15.2572       73.8343      
233           11.4876       15.256        73.8386      
234           11.4876       15.255        73.8453      
235           11.4876       15.2543       73.8542      
236           11.4878       15.2539       73.8648      
237           11.4878       15.2538       73.8764      
238           11.4879       15.254        73.8884      
239           11.4879       15.2545       73.9         
240           11.4878       15.2553       73.9106      
241           11.4877       15.2563       73.9197      
242           11.4875       15.2575       73.9273      
243           11.4874       15.2589       73.933       
244           11.4874       15.2602       73.9369      
245           11.4875       15.2615       73.9392      
246           11.4875       15.2624       73.9399      
247           11.4876       15.263        73.9394      
248           11.4876       15.2631       73.9378      
249           11.4876       15.2627       73.9355      
250           11.4875       15.262        73.9332      
251           11.4875       15.2609       73.9312      
252           11.4873       15.2597       73.93        
253           11.4872       15.2586       73.93        
254           11.4869       15.2576       73.9313      
255           11.4868       15.257        73.934       
256           11.487        15.2567       73.938       
257           11.4871       15.2567       73.9428      
258           11.4871       15.2571       73.9483      
259           11.487        15.2578       73.9541      
260           11.4869       15.2587       73.9599      
261           11.4868       15.2598       73.9653      
262           11.4868       15.2609       73.9702      
263           11.4867       15.262        73.9743      
264           11.4866       15.2631       73.9775      
265           11.4864       15.2641       73.9797      
266           11.4862       15.2649       73.9808      
267           11.486        15.2656       73.9809      
268           11.4858       15.2661       73.98        
269           11.4857       15.2665       73.9785      
270           11.4855       15.2668       73.9764      
271           11.4854       15.2669       73.9739      
272           11.4854       15.2669       73.9714      
273           11.4853       15.2667       73.9688      
274           11.4851       15.2664       73.9665      
275           11.4851       15.266        73.9645      
276           11.485        15.2655       73.9629      
277           11.4848       15.265        73.9617      
278           11.4846       15.2646       73.9611      
279           11.4845       15.2644       73.961       
280           11.4842       15.2644       73.9612      
281           11.4839       15.2645       73.9616      
282           11.4836       15.2648       73.9624      
283           11.4835       15.2653       73.9632      
284           11.4834       15.2658       73.9641      
285           11.4832       15.2664       73.965       
286           11.483        15.267        73.9658      
287           11.4826       15.2675       73.9664      
288           11.4823       15.268        73.9669      
289           11.482        15.2685       73.9673      
290           11.4818       15.269        73.9676      
291           11.4817       15.2696       73.9679      
292           11.4817       15.2703       73.968       
293           11.4816       15.271        73.9681      
294           11.4815       15.2717       73.968       
295           11.4813       15.2724       73.9679      
296           11.481        15.2732       73.9678      
297           11.4806       15.2738       73.9677      
298           11.4801       15.2744       73.9676      
299           11.4798       15.2749       73.9676      
300           11.4796       15.2754       73.9676      
301           11.4795       15.2757       73.9675      
302           11.4793       15.2761       73.9674      
303           11.4791       15.2765       73.9672      
304           11.4788       15.2769       73.9669      
305           11.4785       15.2774       73.9664      
306           11.4781       15.2779       73.9656      
307           11.4778       15.2785       73.9648      
308           11.4775       15.279        73.9638      
309           11.4772       15.2795       73.9627      
310           11.4769       15.2799       73.9616      
311           11.4765       15.2801       73.9606      
312           11.4762       15.2803       73.9596      
313           11.476        15.2804       73.9588      
314           11.4757       15.2805       73.9582      
315           11.4754       15.2806       73.9577      
316           11.475        15.2807       73.9574      
317           11.4746       15.281        73.9571      
318           11.4743       15.2814       73.957       
319           11.4739       15.2819       73.957       
320           11.4736       15.2825       73.957       
321           11.4733       15.2831       73.957       
322           11.4731       15.2837       73.9571      
323           11.4728       15.2842       73.9573      
324           11.4725       15.2848       73.9574      
325           11.4722       15.2852       73.9575      
326           11.4719       15.2857       73.9576      
327           11.4715       15.2862       73.9577      
328           11.4712       15.2867       73.9578      
329           11.4709       15.2873       73.9578      
330           11.4706       15.288        73.9578      
331           11.4702       15.2887       73.9576      
332           11.4699       15.2894       73.9574      
333           11.4695       15.2901       73.9572      
334           11.4692       15.2908       73.957       
335           11.4688       15.2914       73.9567      
336           11.4685       15.2918       73.9564      
337           11.4682       15.2922       73.9561      
338           11.4679       15.2926       73.9558      
339           11.4675       15.2929       73.9555      
340           11.4671       15.2933       73.9552      
341           11.4667       15.2937       73.9549      
342           11.4663       15.2941       73.9545      
343           11.4659       15.2947       73.9542      
344           11.4655       15.2952       73.9538      
345           11.4651       15.2957       73.9535      
346           11.4648       15.2962       73.9531      
347           11.4644       15.2966       73.9526      
348           11.464        15.297        73.9522      
349           11.4636       15.2973       73.9518      
350           11.4631       15.2976       73.9514      
351           11.4627       15.2978       73.951       
352           11.4623       15.2981       73.9506      
353           11.4619       15.2984       73.9503      
354           11.4615       15.2988       73.95        
355           11.4609       15.2993       73.9497      
356           11.4604       15.2998       73.9494      
357           11.46         15.3004       73.9491      
358           11.4593       15.301        73.9488      
359           11.4588       15.3015       73.9486      
360           11.4583       15.302        73.9484      
361           11.4578       15.3025       73.9482      
362           11.4574       15.303        73.948       
363           11.457        15.3034       73.9478      
364           11.4566       15.3038       73.9476      
365           11.4562       15.3042       73.9474      
366           11.4559       15.3046       73.9472      
367           11.4555       15.3051       73.9469      
368           11.4551       15.3057       73.9466      
369           11.4547       15.3062       73.9463      
370           11.4543       15.3068       73.946       
371           11.4538       15.3073       73.9457      
372           11.4533       15.3078       73.9453      
373           11.4529       15.3082       73.9449      
374           11.4524       15.3085       73.9445      
375           11.452        15.3088       73.9441      
376           11.4515       15.3091       73.9437      
377           11.4511       15.3093       73.9432      
378           11.4507       15.3096       73.9428      
379           11.4502       15.31         73.9423      
380           11.4498       15.3103       73.9418      
381           11.4493       15.3107       73.9413      
382           11.4489       15.3112       73.9407      
383           11.4484       15.3116       73.9402      
384           11.4479       15.3121       73.9397      
385           11.4474       15.3125       73.9392      
386           11.4469       15.3129       73.9387      
387           11.4462       15.3133       73.9382      
388           11.4457       15.3137       73.9377      
389           11.4452       15.3141       73.9372      
390           11.4444       15.3144       73.9368      
391           11.4439       15.3148       73.9363      
392           11.4434       15.3151       73.9358      
393           11.4428       15.3155       73.9354      
394           11.4423       15.3158       73.9349      
395           11.4418       15.3161       73.9345      
396           11.441        15.3165       73.9341      
397           11.4405       15.3168       73.9337      
398           11.44         15.3171       73.9333      
399           11.4394       15.3175       73.933       
400           11.4389       15.3178       73.9326      
401           11.4383       15.3181       73.9322      
402           11.4378       15.3183       73.9318      
403           11.437        15.3186       73.9315      
404           11.4365       15.3188       73.9311      
405           11.4359       15.3191       73.9308      
406           11.4354       15.3193       73.9304      
407           11.4348       15.3195       73.93        
408           11.4343       15.3197       73.9296      
409           11.4338       15.3199       73.9292      
410           11.4333       15.3201       73.9288      
411           11.4327       15.3203       73.9284      
412           11.4322       15.3205       73.9279      
413           11.4317       15.3208       73.9274      
414           11.4312       15.321        73.9269      
415           11.4307       15.3212       73.9263      
416           11.43         15.3214       73.9258      
417           11.4294       15.3217       73.9252      
418           11.4289       15.3219       73.9245      
419           11.4283       15.3221       73.9239      
420           11.4277       15.3223       73.9232      
421           11.4271       15.3225       73.9225      
422           11.4263       15.3228       73.9218      
423           11.4257       15.323        73.9212      
424           11.4252       15.3232       73.9205      
425           11.4247       15.3234       73.9198      
426           11.4242       15.3236       73.9191      
427           11.4236       15.3237       73.9184      
428           11.4231       15.3239       73.9176      
429           11.4225       15.324        73.9169      
430           11.4217       15.3241       73.9161      
431           11.4211       15.3242       73.9154      
432           11.4205       15.3243       73.9146      
433           11.4199       15.3243       73.9139      
434           11.4193       15.3244       73.9132      
435           11.4187       15.3245       73.9125      
436           11.4181       15.3245       73.9118      
437           11.4173       15.3246       73.9112      
438           11.4168       15.3246       73.9106      
439           11.4162       15.3245       73.9099      
440           11.4157       15.3245       73.9092      
441           11.4151       15.3245       73.9086      
442           11.4146       15.3244       73.9079      
443           11.414        15.3244       73.9071      
444           11.4135       15.3244       73.9064      
445           11.4131       15.3244       73.9057      
446           11.4127       15.3245       73.905       
447           11.4123       15.3245       73.9042      
448           11.4119       15.3245       73.9035      
449           11.4115       15.3245       73.9027      
450           11.4109       15.3245       73.9019      
451           11.4103       15.3245       73.901       
452           11.4096       15.3244       73.9001      
453           11.4088       15.3244       73.8992      
454           11.4078       15.3243       73.8982      
455           11.4072       15.3242       73.8973      
456           11.4065       15.3241       73.8962      
457           11.406        15.324        73.8952      
458           11.4054       15.3239       73.8941      
459           11.4049       15.3239       73.893       
460           11.4044       15.3238       73.8919      
461           11.4036       15.3237       73.8907      
462           11.4032       15.3236       73.8895      
463           11.4026       15.3235       73.8883      
464           11.402        15.3234       73.8871      
465           11.4013       15.3232       73.8858      
466           11.4007       15.323        73.8845      
467           11.4001       15.3229       73.8833      
468           11.3994       15.3227       73.882       
469           11.3988       15.3225       73.8807      
470           11.3982       15.3224       73.8795      
471           11.3976       15.3221       73.8782      
472           11.3971       15.3219       73.8769      
473           11.3966       15.3216       73.8756      
474           11.3961       15.3213       73.8742      
475           11.3956       15.321        73.8728      
476           11.395        15.3206       73.8714      
477           11.3943       15.3203       73.8699      
478           11.3936       15.32         73.8684      
479           11.3925       15.3197       73.8668      
480           11.3917       15.3195       73.8653      
481           11.391        15.3193       73.8637      
482           11.3904       15.3191       73.8621      
483           11.3898       15.319        73.8605      
484           11.3894       15.3188       73.8589      
485           11.3888       15.3185       73.8572      
486           11.3883       15.3183       73.8555      
487           11.3877       15.318        73.8538      
488           11.3872       15.3177       73.852       
489           11.3862       15.3173       73.8502      
490           11.3857       15.317        73.8483      
491           11.385        15.3166       73.8465      
492           11.3844       15.3162       73.8446      
493           11.3837       15.3159       73.8427      
494           11.383        15.3155       73.8407      
495           11.3823       15.3152       73.8387      
496           11.3817       15.3148       73.8367      
497           11.3811       15.3143       73.8346      
498           11.3805       15.3138       73.8325      
499           11.3799       15.3133       73.8304      
500           11.3794       15.3127       73.8282      
