# Probe 0 (3 1.5 2.5)
# Probe 1 (4.99 1.5 3.05)
# Probe 2 (5.7 1.5 2.5)
# Time        0             1             2            
0             (0 0 0)       (0 0 0)       (0 0 0)      
1             (7.73969 0.0633838 0.0104718) (-0.0124698 -0.00368678 -0.748239) (5.84967 -0.0383838 -0.0641313)
2             (13.6685 0.0262716 -0.0197093) (0.0146233 0.0250358 -6.10469) (10.7486 -0.0544236 -0.109077)
3             (29.1216 -0.0251617 -0.114861) (-0.256724 -0.00408023 -5.81657) (22.5535 -0.117965 -0.33742)
4             (39.2435 0.0159591 -0.18603) (2.26149 -0.0766783 -11.4843) (31.0245 -0.162408 -0.444955)
5             (39.6308 0.0693145 -0.22872) (1.42867 -0.0780906 -12.5662) (31.2679 -0.17825 -0.439267)
6             (33.716 0.0674158 -0.191794) (0.313885 -0.063205 -12.8553) (27.5138 -0.175245 -0.371402)
7             (28.3035 0.0123843 -0.106403) (-0.2874 -0.0525451 -13.5032) (25.1577 -0.175486 -0.290744)
8             (27.2821 -0.0440335 -0.0287854) (-0.333754 -0.0504366 -14.3374) (26.1813 -0.190137 -0.276684)
9             (30.0868 -0.0717935 0.00463768) (-0.0222802 -0.0485391 -14.8658) (28.9302 -0.211568 -0.321421)
10            (33.5003 -0.0816728 0.0136784) (0.460709 -0.0367508 -14.8058) (30.9582 -0.227 -0.366162)
11            (34.9679 -0.0952327 0.00962702) (1.07317 -0.0133745 -14.0602) (31.3078 -0.23355 -0.380642)
12            (34.0927 -0.117146 -0.00608674) (1.87951 0.01196 -12.4833) (30.63 -0.237003 -0.386895)
13            (32.1828 -0.137098 -0.0399493) (2.92936 0.0298853 -9.76791) (30.0804 -0.243547 -0.419943)
14            (30.8522 -0.146159 -0.0862213) (4.41465 0.0449407 -6.21854) (30.2 -0.252018 -0.485323)
15            (30.7648 -0.144863 -0.127775) (5.68219 0.0655386 -2.52328) (30.7099 -0.256728 -0.551719)
16            (31.4455 -0.13959 -0.152515) (5.56625 0.094347 0.405031) (31.0375 -0.252002 -0.583833)
17            (31.9841 -0.136846 -0.168481) (4.4232 0.118359 2.55565) (30.9655 -0.236684 -0.5794)
18            (31.922 -0.13552 -0.174116) (3.58351 0.12708 4.26464) (30.7224 -0.213753 -0.56656)
19            (31.368 -0.132445 -0.16411) (3.38441 0.124719 5.87165) (30.6417 -0.188237 -0.565958)
20            (30.7645 -0.125903 -0.146129) (3.67171 0.112159 7.3955) (30.8641 -0.165055 -0.565411)
21            (30.4459 -0.116493 -0.134247) (4.14059 0.0917808 8.85409) (31.2782 -0.14654 -0.540138)
22            (30.4761 -0.105848 -0.136247) (4.52883 0.0669593 10.1758) (31.6537 -0.13092 -0.47891)
23            (30.678 -0.0957458 -0.152467) (4.75096 0.0422001 11.345) (31.8473 -0.116324 -0.394072)
24            (30.8227 -0.0882807 -0.180221) (4.85163 0.0226534 12.371) (31.8585 -0.102349 -0.306184)
25            (30.7781 -0.0833157 -0.208734) (4.93301 0.0141783 13.301) (31.773 -0.0896751 -0.230202)
26            (30.5954 -0.0778364 -0.225366) (5.07283 0.0221311 14.1733) (31.6472 -0.0785298 -0.170072)
27            (30.4056 -0.0700314 -0.227667) (5.27474 0.0500672 15.0022) (31.4777 -0.0676018 -0.117657)
28            (30.2614 -0.060791 -0.222717) (5.49319 0.0970501 15.7351) (31.2699 -0.0542564 -0.0636706)
29            (30.2203 -0.0514971 -0.216733) (5.69472 0.15756 16.3356) (31.0144 -0.0359832 -0.00391762)
30            (30.2773 -0.0435649 -0.213909) (5.82631 0.226525 16.7424) (30.7289 -0.0128625 0.0663346)
31            (30.3499 -0.0375437 -0.214599) (5.91775 0.299895 16.9626) (30.459 0.0122942 0.141927)
32            (30.4135 -0.0340394 -0.21849) (6.02453 0.379294 16.9708) (30.2667 0.0350289 0.222569)
33            (30.4499 -0.0312425 -0.225764) (6.2436 0.457975 16.7368) (30.1726 0.0583526 0.309408)
34            (30.4414 -0.0298666 -0.235888) (6.63746 0.530709 16.2189) (30.2007 0.0757973 0.398144)
35            (30.395 -0.0294916 -0.246581) (7.1282 0.584828 15.4885) (30.3618 0.0872243 0.478058)
36            (30.3373 -0.0298789 -0.254726) (7.53207 0.608071 14.736) (30.6413 0.0893415 0.536772)
37            (30.2791 -0.0312418 -0.259044) (7.67205 0.600146 14.2126) (31.0126 0.0825056 0.567479)
38            (30.2297 -0.0333244 -0.259972) (7.50556 0.569885 14.1) (31.4136 0.0689069 0.565654)
39            (30.1965 -0.0355193 -0.258859) (7.13726 0.528874 14.4191) (31.7607 0.0492364 0.545023)
40            (30.1844 -0.0371311 -0.25591) (6.73479 0.48152 15.0437) (31.9574 0.0275091 0.502188)
41            (30.1818 -0.0387421 -0.250738) (6.2701 0.428686 15.8307) (32.0362 0.00140839 0.424676)
42            (30.1877 -0.0404696 -0.24397) (5.81053 0.371771 16.6292) (31.9859 -0.0294976 0.304319)
43            (30.2018 -0.0422589 -0.237124) (5.49007 0.320323 17.2766) (31.8196 -0.0606073 0.147642)
44            (30.2225 -0.0439644 -0.231605) (5.39805 0.293314 17.6633) (31.5724 -0.0849521 -0.022737)
45            (30.2472 -0.0454353 -0.227843) (5.52156 0.304011 17.7665) (31.2828 -0.0971389 -0.175452)
46            (30.2727 -0.0466369 -0.225513) (5.81695 0.353989 17.6178) (30.9824 -0.0955093 -0.280346)
47            (30.2924 -0.0477611 -0.224037) (6.21796 0.433005 17.2885) (30.686 -0.0818885 -0.316109)
48            (30.2972 -0.0490218 -0.222906) (6.58833 0.519478 16.9175) (30.3973 -0.0604561 -0.27582)
49            (30.2871 -0.0503166 -0.221818) (6.77045 0.592368 16.6721) (30.1324 -0.036372 -0.172427)
50            (30.2699 -0.0514128 -0.220461) (6.67757 0.640979 16.6473) (29.9272 -0.0144631 -0.0359716)
51            (30.2508 -0.0522823 -0.218635) (6.32636 0.664512 16.7996) (29.8087 0.00222612 0.0982812)
52            (30.2331 -0.0529969 -0.216422) (5.84258 0.668536 16.9912) (29.7796 0.0133749 0.202667)
53            (30.2201 -0.053559 -0.214094) (5.39318 0.664121 17.0745) (29.8294 0.0204259 0.263139)
54            (30.2143 -0.0539259 -0.21188) (5.14529 0.666796 16.9634) (29.9375 0.0246469 0.277007)
55            (30.2158 -0.0540752 -0.20986) (5.25903 0.69123 16.6407) (30.0727 0.0261047 0.24889)
56            (30.2239 -0.0540335 -0.208017) (5.7805 0.742517 16.1241) (30.2024 0.0240666 0.19049)
57            (30.2371 -0.0538752 -0.206328) (6.60072 0.818883 15.4179) (30.3037 0.018071 0.119889)
58            (30.2531 -0.0536829 -0.204855) (7.44999 0.909388 14.6216) (30.3678 0.00887517 0.0580525)
59            (30.2701 -0.0534916 -0.203636) (8.03588 1.00369 13.9391) (30.4013 -0.00129119 0.0221171)
60            (30.2865 -0.0532951 -0.202585) (8.22095 1.09814 13.5343) (30.4256 -0.00963777 0.0183148)
61            (30.2994 -0.0531288 -0.201575) (8.07327 1.18816 13.4448) (30.4593 -0.0142634 0.0389139)
62            (30.3052 -0.0530534 -0.200548) (7.76814 1.26337 13.5855) (30.5033 -0.0149518 0.065534)
63            (30.3042 -0.0530306 -0.199528) (7.47638 1.31574 13.8206) (30.553 -0.0130906 0.0788927)
64            (30.2997 -0.0529917 -0.198507) (7.28575 1.3492 14.0211) (30.6039 -0.0110395 0.0660882)
65            (30.2937 -0.0529606 -0.197465) (7.20807 1.37636 14.0966) (30.6443 -0.0110265 0.0224325)
66            (30.2872 -0.0529741 -0.196455) (7.22888 1.4068 14.0084) (30.6701 -0.014216 -0.0472859)
67            (30.2821 -0.053017 -0.195572) (7.32331 1.4423 13.7702) (30.6839 -0.0202577 -0.129601)
68            (30.2798 -0.0530585 -0.194847) (7.44816 1.47864 13.4387) (30.6848 -0.0274376 -0.206292)
69            (30.2798 -0.0531072 -0.194244) (7.54534 1.50772 13.0957) (30.6696 -0.0332748 -0.258876)
70            (30.2811 -0.0531841 -0.193753) (7.5609 1.52054 12.8267) (30.6457 -0.0356694 -0.273152)
71            (30.2836 -0.0532734 -0.193399) (7.46764 1.51195 12.7054) (30.6338 -0.0340375 -0.244682)
72            (30.2879 -0.0533441 -0.193177) (7.28197 1.48278 12.7725) (30.6482 -0.0295903 -0.183982)
73            (30.2939 -0.0533938 -0.193039) (7.05723 1.43766 13.0168) (30.6892 -0.0247195 -0.112715)
74            (30.3003 -0.0534476 -0.192948) (6.85422 1.38341 13.3718) (30.753 -0.021893 -0.0526476)
75            (30.3063 -0.0535059 -0.192896) (6.71082 1.32763 13.7401) (30.8312 -0.0226008 -0.0184999)
76            (30.311 -0.0535758 -0.192884) (6.63315 1.27784 14.0265) (30.9109 -0.027339 -0.0312711)
77            (30.312 -0.0536937 -0.192864) (6.60909 1.23857 14.1534) (30.9846 -0.0354911 -0.0653599)
78            (30.3081 -0.0538307 -0.192872) (6.61618 1.21137 14.1143) (31.0491 -0.0445721 -0.116714)
79            (30.3016 -0.0539111 -0.193001) (6.63382 1.19383 13.9246) (31.0928 -0.0529378 -0.184486)
80            (30.2947 -0.0539259 -0.193082) (6.64387 1.18259 13.6478) (31.1022 -0.0591611 -0.24886)
81            (30.2883 -0.0539158 -0.193148) (6.64137 1.17467 13.336) (31.076 -0.0620861 -0.296725)
82            (30.2832 -0.0538998 -0.193191) (6.62506 1.16909 13.0694) (31.0202 -0.0613133 -0.322622)
83            (30.2801 -0.0538607 -0.193261) (6.60132 1.16576 12.8748) (30.9483 -0.0582338 -0.32267)
84            (30.2793 -0.0537909 -0.193366) (6.57765 1.16486 12.7633) (30.875 -0.0540404 -0.295799)
85            (30.2803 -0.0537073 -0.193494) (6.55706 1.16598 12.7147) (30.814 -0.0495797 -0.247052)
86            (30.2826 -0.0536318 -0.19365) (6.53707 1.16791 12.6939) (30.7753 -0.0456461 -0.186763)
87            (30.2855 -0.0535707 -0.19386) (6.51297 1.16909 12.6695) (30.762 -0.0428659 -0.126774)
88            (30.2889 -0.0535148 -0.194149) (6.4813 1.16829 12.6269) (30.7711 -0.0414496 -0.0764206)
89            (30.2925 -0.0534538 -0.194515) (6.44197 1.16497 12.571) (30.796 -0.0412211 -0.0408191)
90            (30.2961 -0.0533874 -0.194927) (6.39775 1.15934 12.52) (30.829 -0.0418515 -0.0212935)
91            (30.2997 -0.0533246 -0.195339) (6.35345 1.15228 12.4935) (30.8629 -0.0430459 -0.0163822)
92            (30.303 -0.0532779 -0.195708) (6.31434 1.145 12.5017) (30.8919 -0.0445911 -0.0227135)
93            (30.3053 -0.0532629 -0.196014) (6.28478 1.13857 12.5402) (30.913 -0.046332 -0.035999)
94            (30.3059 -0.0532889 -0.196274) (6.26683 1.13348 12.5918) (30.9287 -0.0481693 -0.0522353)
95            (30.3044 -0.0533339 -0.196532) (6.25908 1.12948 12.634) (30.9416 -0.0500211 -0.0683976)
96            (30.302 -0.053362 -0.196798) (6.25688 1.12595 12.6492) (30.95 -0.0517523 -0.0826701)
97            (30.2994 -0.0533678 -0.197042) (6.25463 1.12211 12.6297) (30.9534 -0.0532109 -0.094231)
98            (30.2969 -0.0533645 -0.197241) (6.24818 1.11721 12.5797) (30.9535 -0.0542912 -0.102772)
99            (30.2949 -0.0533581 -0.197393) (6.23493 1.11073 12.5131) (30.9513 -0.0549474 -0.108318)
100           (30.2938 -0.0533452 -0.1975) (6.21405 1.10253 12.4484) (30.9473 -0.0552011 -0.111102)
101           (30.2938 -0.0533238 -0.197554) (6.18687 1.09288 12.4026) (30.9421 -0.0551374 -0.111479)
102           (30.2949 -0.0532982 -0.197551) (6.15673 1.08227 12.3861) (30.9365 -0.0548838 -0.109966)
103           (30.2969 -0.053276 -0.197497) (6.1276 1.07114 12.3999) (30.931 -0.054577 -0.107306)
104           (30.2997 -0.0532617 -0.197413) (6.10215 1.05971 12.4373) (30.9261 -0.0543334 -0.10441)
105           (30.303 -0.0532548 -0.197317) (6.08089 1.04807 12.4865) (30.9221 -0.0542326 -0.102153)
106           (30.3067 -0.053254 -0.197219) (6.06264 1.03634 12.5349) (30.9192 -0.0543137 -0.101158)
107           (30.3104 -0.0532607 -0.197116) (6.04576 1.02475 12.5724) (30.9167 -0.0545746 -0.101672)
108           (30.3138 -0.0532759 -0.197) (6.02898 1.01363 12.5933) (30.9137 -0.0549748 -0.103574)
109           (30.3167 -0.0532992 -0.196865) (6.01172 1.00323 12.5964) (30.9093 -0.0554448 -0.106492)
110           (30.3189 -0.0533292 -0.196715) (5.99374 0.993689 12.584) (30.9026 -0.0558992 -0.109958)
111           (30.3203 -0.0533628 -0.196556) (5.97486 0.984942 12.56) (30.893 -0.0562547 -0.113542)
112           (30.3209 -0.0533962 -0.196403) (5.95489 0.976785 12.5286) (30.8806 -0.0564442 -0.116886)
113           (30.3208 -0.0534299 -0.196267) (5.93366 0.968645 12.4924) (30.8656 -0.0562983 -0.119639)
114           (30.3201 -0.0534541 -0.19615) (5.91111 0.960707 12.4532) (30.8487 -0.0559178 -0.12144)
115           (30.3188 -0.0534715 -0.196048) (5.88521 0.952522 12.4122) (30.8295 -0.0553859 -0.122257)
116           (30.3175 -0.0534872 -0.195962) (5.86168 0.943724 12.3709) (30.8113 -0.0547197 -0.122332)
117           (30.3163 -0.053503 -0.19589) (5.83997 0.934145 12.3306) (30.794 -0.0539042 -0.121705)
118           (30.3153 -0.0535169 -0.195831) (5.81873 0.923928 12.2932) (30.7771 -0.0529538 -0.120204)
119           (30.3148 -0.0535267 -0.19579) (5.7973 0.913396 12.2616) (30.7609 -0.0519242 -0.117731)
120           (30.3148 -0.0535318 -0.195767) (5.77612 0.902894 12.2389) (30.7463 -0.0508858 -0.114475)
121           (30.3153 -0.0535335 -0.195763) (5.75615 0.892729 12.2275) (30.734 -0.0499035 -0.110896)
122           (30.3163 -0.0535324 -0.195775) (5.73817 0.883163 12.228) (30.7238 -0.0490267 -0.107571)
123           (30.3177 -0.053528 -0.195797) (5.72252 0.874415 12.2389) (30.7149 -0.0482816 -0.104989)
124           (30.3195 -0.0535216 -0.195824) (5.70931 0.866689 12.2584) (30.706 -0.0476701 -0.103366)
125           (30.3214 -0.0535164 -0.195845) (5.69847 0.860008 12.2791) (30.6967 -0.0471781 -0.102853)
126           (30.3231 -0.0535122 -0.195861) (5.68919 0.854305 12.2988) (30.6871 -0.046755 -0.103273)
127           (30.3245 -0.0535071 -0.195872) (5.68086 0.849489 12.3104) (30.6775 -0.046371 -0.104241)
128           (30.3253 -0.0535009 -0.195877) (5.6729 0.845411 12.3108) (30.6674 -0.0460015 -0.105427)
129           (30.3255 -0.0534948 -0.195873) (5.66474 0.841895 12.2984) (30.6568 -0.045628 -0.106583)
130           (30.3253 -0.0534888 -0.195861) (5.65591 0.838748 12.2739) (30.6457 -0.0452374 -0.107487)
131           (30.3248 -0.0534819 -0.195842) (5.64606 0.835778 12.2401) (30.6341 -0.0448205 -0.107915)
132           (30.3241 -0.0534735 -0.195814) (5.63502 0.832827 12.2009) (30.6226 -0.044375 -0.10767)
133           (30.3234 -0.0534648 -0.195777) (5.62289 0.829788 12.1609) (30.6117 -0.0439091 -0.106634)
134           (30.3228 -0.0534566 -0.195729) (5.61012 0.826621 12.1244) (30.602 -0.0434403 -0.1048)
135           (30.3225 -0.0534482 -0.195673) (5.59737 0.823347 12.0946) (30.5936 -0.0429905 -0.102263)
136           (30.3224 -0.0534383 -0.195607) (5.58544 0.820033 12.0738) (30.5866 -0.042581 -0.0991898)
137           (30.3227 -0.0534261 -0.195533) (5.57502 0.816777 12.0627) (30.5811 -0.042229 -0.095781)
138           (30.3232 -0.0534119 -0.19545) (5.56664 0.813697 12.061) (30.5769 -0.0419459 -0.0922362)
139           (30.324 -0.0533966 -0.195361) (5.56054 0.81091 12.067) (30.5739 -0.0417375 -0.0887352)
140           (30.3248 -0.0533807 -0.195269) (5.55668 0.808525 12.0786) (30.5716 -0.0416036 -0.0854325)
141           (30.3256 -0.0533654 -0.195174) (5.5548 0.806622 12.0932) (30.5697 -0.0415381 -0.0824501)
142           (30.3264 -0.0533519 -0.195077) (5.55445 0.805238 12.1084) (30.5679 -0.0415302 -0.0798639)
143           (30.3271 -0.0533413 -0.19498) (5.5551 0.80436 12.1218) (30.5659 -0.0415658 -0.0776907)
144           (30.3275 -0.0533341 -0.194885) (5.55615 0.803924 12.1318) (30.5636 -0.041629 -0.0758864)
145           (30.3278 -0.0533302 -0.194793) (5.55702 0.803829 12.1371) (30.5609 -0.0417034 -0.0743584)
146           (30.3278 -0.0533296 -0.194707) (5.55721 0.803951 12.1372) (30.5577 -0.041774 -0.0729893)
147           (30.3277 -0.0533317 -0.194628) (5.55634 0.80416 12.1323) (30.5542 -0.041828 -0.0716607)
148           (30.3275 -0.0533362 -0.194558) (5.55423 0.804334 12.123) (30.5505 -0.0418562 -0.0702668)
149           (30.3273 -0.0533426 -0.194499) (5.55086 0.804371 12.1104) (30.5466 -0.0418541 -0.0687233)
150           (30.327 -0.0533503 -0.194449) (5.54639 0.804196 12.096) (30.5427 -0.0418217 -0.0669754)
151           (30.3268 -0.0533584 -0.194408) (5.54109 0.803763 12.0811) (30.539 -0.0417632 -0.0649999)
152           (30.3267 -0.0533662 -0.194374) (5.5353 0.803059 12.0674) (30.5357 -0.0416862 -0.0628003)
153           (30.3267 -0.0533728 -0.194347) (5.52936 0.802101 12.0559) (30.5327 -0.0416 -0.0604053)
154           (30.3268 -0.0533786 -0.194324) (5.52363 0.800927 12.0476) (30.5303 -0.0415135 -0.0579257)
155           (30.3269 -0.0533841 -0.194304) (5.51841 0.799598 12.0428) (30.5286 -0.0414376 -0.0554761)
156           (30.327 -0.0533883 -0.194289) (5.51386 0.798187 12.0418) (30.5276 -0.0413833 -0.0530392)
157           (30.3272 -0.0533914 -0.194278) (5.51009 0.796773 12.0439) (30.527 -0.0413549 -0.0506199)
158           (30.3275 -0.053394 -0.194268) (5.50713 0.795424 12.0488) (30.5265 -0.0413499 -0.0482453)
159           (30.3278 -0.0533974 -0.194257) (5.50501 0.794188 12.0554) (30.5259 -0.0413609 -0.0459906)
160           (30.3281 -0.0534022 -0.194243) (5.50365 0.793088 12.0627) (30.5249 -0.0413792 -0.0439719)
161           (30.3284 -0.0534086 -0.19423) (5.50291 0.792128 12.0697) (30.5235 -0.0413992 -0.0422775)
162           (30.3287 -0.0534165 -0.19422) (5.50258 0.7913 12.0754) (30.5219 -0.0414185 -0.0409196)
163           (30.329 -0.0534257 -0.194216) (5.50247 0.790582 12.0791) (30.5201 -0.0414363 -0.0398398)
164           (30.3292 -0.0534354 -0.194216) (5.50243 0.789944 12.0805) (30.5186 -0.041451 -0.0389457)
165           (30.3293 -0.0534449 -0.194222) (5.50237 0.789344 12.0796) (30.5173 -0.0414598 -0.0381419)
166           (30.3294 -0.0534539 -0.194231) (5.50224 0.788742 12.0766) (30.5165 -0.0414606 -0.037349)
167           (30.3295 -0.0534625 -0.194243) (5.50199 0.788107 12.072) (30.5162 -0.0414512 -0.0365244)
168           (30.3295 -0.053471 -0.194259) (5.50158 0.787428 12.0666) (30.5162 -0.0414306 -0.0356672)
169           (30.3296 -0.0534796 -0.194275) (5.50101 0.786708 12.061) (30.5166 -0.0413992 -0.0347974)
170           (30.3296 -0.0534882 -0.194289) (5.50034 0.78596 12.0561) (30.5171 -0.041359 -0.0339292)
171           (30.3295 -0.0534964 -0.194301) (5.49969 0.785206 12.0524) (30.5176 -0.0413129 -0.0330615)
172           (30.3295 -0.0535039 -0.194311) (5.49915 0.784471 12.0503) (30.518 -0.0412638 -0.0321875)
173           (30.3294 -0.0535103 -0.19432) (5.49883 0.783782 12.0499) (30.5182 -0.0412155 -0.03131)
174           (30.3294 -0.0535158 -0.19433) (5.49882 0.783159 12.0509) (30.5184 -0.0411718 -0.0304503)
175           (30.3293 -0.0535204 -0.194341) (5.49916 0.782617 12.0531) (30.5187 -0.0411365 -0.0296446)
176           (30.3293 -0.0535242 -0.194353) (5.49983 0.782159 12.0558) (30.5191 -0.0411126 -0.0289298)
177           (30.3292 -0.0535275 -0.194364) (5.50079 0.781783 12.0586) (30.5197 -0.0411012 -0.0283284)
178           (30.3292 -0.0535304 -0.194374) (5.50194 0.781475 12.061) (30.5204 -0.0411013 -0.0278456)
179           (30.3292 -0.0535328 -0.194381) (5.50317 0.781217 12.0625) (30.5212 -0.0411099 -0.0274691)
180           (30.3293 -0.0535349 -0.194385) (5.50436 0.780988 12.063) (30.522 -0.0411229 -0.0271727)
181           (30.3293 -0.0535367 -0.194388) (5.50538 0.780763 12.0622) (30.5228 -0.041136 -0.0269253)
182           (30.3294 -0.0535382 -0.19439) (5.50615 0.780524 12.0604) (30.5235 -0.0411457 -0.0266968)
183           (30.3294 -0.0535396 -0.194393) (5.50659 0.780255 12.0576) (30.5241 -0.0411496 -0.0264626)
184           (30.3295 -0.0535408 -0.194396) (5.50667 0.779946 12.0543) (30.5247 -0.0411464 -0.0262071)
185           (30.3296 -0.0535418 -0.194399) (5.50643 0.779592 12.0506) (30.5251 -0.0411361 -0.0259236)
186           (30.3296 -0.0535426 -0.194403) (5.50589 0.779193 12.0468) (30.5254 -0.0411193 -0.0256142)
187           (30.3297 -0.0535432 -0.194407) (5.50512 0.778752 12.0431) (30.5257 -0.0410974 -0.0252867)
188           (30.3298 -0.0535436 -0.194411) (5.50421 0.778274 12.0398) (30.5259 -0.0410719 -0.0249483)
189           (30.3298 -0.0535439 -0.194416) (5.5032 0.777766 12.0368) (30.5261 -0.0410448 -0.0246009)
190           (30.3299 -0.0535442 -0.19442) (5.50215 0.777236 12.0342) (30.5262 -0.0410174 -0.0242422)
191           (30.3299 -0.0535444 -0.194424) (5.50109 0.776693 12.0319) (30.5263 -0.0409907 -0.0238691)
192           (30.33 -0.0535448 -0.194427) (5.50006 0.776143 12.0299) (30.5263 -0.0409654 -0.0234805)
193           (30.33 -0.0535451 -0.19443) (5.49907 0.775592 12.0281) (30.5264 -0.0409423 -0.0230937)
194           (30.33 -0.0535456 -0.194432) (5.49815 0.775041 12.0264) (30.5264 -0.0409222 -0.0227117)
195           (30.33 -0.0535461 -0.194434) (5.49723 0.774483 12.0248) (30.5265 -0.0409057 -0.0223066)
196           (30.33 -0.0535467 -0.194436) (5.4963 0.773929 12.0231) (30.5267 -0.0408921 -0.0219058)
197           (30.33 -0.053547 -0.194439) (5.49538 0.773385 12.0214) (30.5269 -0.040881 -0.0215162)
198           (30.33 -0.0535473 -0.194442) (5.49444 0.772844 12.0196) (30.5272 -0.0408724 -0.0211233)
199           (30.33 -0.0535473 -0.194446) (5.49348 0.772304 12.0178) (30.5275 -0.0408651 -0.0207315)
200           (30.3299 -0.0535471 -0.19445) (5.49247 0.771766 12.0159) (30.5278 -0.0408588 -0.0203302)
201           (30.3299 -0.0535467 -0.194452) (5.4914 0.771235 12.014) (30.528 -0.0408513 -0.019921)
202           (30.3298 -0.0535465 -0.194453) (5.49029 0.770712 12.0121) (30.528 -0.0408417 -0.0194972)
203           (30.3298 -0.0535462 -0.194454) (5.48912 0.770205 12.0102) (30.5281 -0.0408293 -0.0190911)
204           (30.3297 -0.0535457 -0.194454) (5.48792 0.769702 12.0083) (30.5278 -0.0408132 -0.0186558)
205           (30.3297 -0.0535452 -0.194453) (5.4867 0.769204 12.0064) (30.5273 -0.0407919 -0.0181855)
206           (30.3297 -0.0535445 -0.194453) (5.48544 0.768724 12.0046) (30.5269 -0.0407673 -0.0177318)
207           (30.3296 -0.0535436 -0.194452) (5.48417 0.768258 12.0028) (30.5264 -0.0407403 -0.017283)
208           (30.3296 -0.0535427 -0.194452) (5.4829 0.767794 12.001) (30.5259 -0.0407125 -0.016807)
209           (30.3295 -0.0535419 -0.194452) (5.48163 0.767337 11.9992) (30.5255 -0.040684 -0.0163014)
210           (30.3295 -0.053541 -0.194451) (5.48032 0.7669 11.9975) (30.5251 -0.0406546 -0.0158229)
211           (30.3295 -0.0535403 -0.19445) (5.47901 0.766472 11.9958) (30.5247 -0.0406254 -0.0153664)
212           (30.3295 -0.0535395 -0.194449) (5.47774 0.766039 11.9941) (30.5244 -0.0405973 -0.0149228)
213           (30.3295 -0.0535387 -0.194447) (5.4765 0.765595 11.9924) (30.5242 -0.0405703 -0.0144829)
214           (30.3294 -0.0535379 -0.194445) (5.47528 0.765144 11.9907) (30.524 -0.0405442 -0.0140404)
215           (30.3294 -0.0535374 -0.194442) (5.47403 0.764696 11.989) (30.5238 -0.0405181 -0.0135956)
216           (30.3294 -0.053537 -0.194439) (5.47275 0.76426 11.9875) (30.5235 -0.0404915 -0.0131534)
217           (30.3294 -0.0535367 -0.194437) (5.47143 0.763839 11.9861) (30.5232 -0.0404644 -0.0127188)
218           (30.3294 -0.0535363 -0.194435) (5.47012 0.763431 11.9847) (30.5228 -0.0404366 -0.0122971)
219           (30.3294 -0.0535359 -0.194433) (5.46884 0.76303 11.9835) (30.5224 -0.0404082 -0.0118903)
220           (30.3294 -0.0535354 -0.194431) (5.46761 0.762633 11.9824) (30.522 -0.0403797 -0.0114967)
221           (30.3295 -0.053535 -0.194429) (5.46642 0.762238 11.9814) (30.5215 -0.0403512 -0.0111145)
222           (30.3295 -0.0535347 -0.194427) (5.46528 0.761844 11.9804) (30.521 -0.0403234 -0.0107424)
223           (30.3295 -0.0535345 -0.194423) (5.46415 0.761457 11.9795) (30.5206 -0.0402966 -0.0103807)
224           (30.3295 -0.0535345 -0.194419) (5.46304 0.761079 11.9787) (30.5202 -0.0402714 -0.0100317)
225           (30.3295 -0.0535347 -0.194416) (5.46195 0.76071 11.9779) (30.5198 -0.0402479 -0.00969701)
226           (30.3295 -0.0535348 -0.194414) (5.4609 0.760349 11.9772) (30.5194 -0.0402262 -0.00937612)
227           (30.3295 -0.0535349 -0.194412) (5.4599 0.759994 11.9766) (30.5191 -0.0402061 -0.00906854)
228           (30.3296 -0.0535349 -0.19441) (5.45894 0.759645 11.976) (30.5188 -0.0401876 -0.00877214)
229           (30.3296 -0.053535 -0.194408) (5.45802 0.759303 11.9755) (30.5186 -0.0401704 -0.00848337)
230           (30.3296 -0.0535351 -0.194406) (5.45713 0.75897 11.9751) (30.5183 -0.0401543 -0.00819971)
231           (30.3296 -0.0535353 -0.194403) (5.45627 0.758647 11.9746) (30.5181 -0.040139 -0.00791862)
232           (30.3296 -0.0535354 -0.1944) (5.45544 0.758334 11.9743) (30.518 -0.0401243 -0.0076387)
233           (30.3296 -0.0535355 -0.194396) (5.45464 0.758033 11.9739) (30.5178 -0.0401098 -0.00736243)
234           (30.3296 -0.0535357 -0.194391) (5.45387 0.757743 11.9736) (30.5177 -0.040095 -0.00709372)
235           (30.3296 -0.0535359 -0.194386) (5.45312 0.757467 11.9733) (30.5175 -0.0400799 -0.00683655)
236           (30.3297 -0.0535362 -0.194379) (5.45241 0.757201 11.973) (30.5172 -0.0400643 -0.00659498)
237           (30.3297 -0.0535368 -0.194372) (5.45172 0.756946 11.9728) (30.5169 -0.0400482 -0.00636968)
238           (30.3297 -0.0535375 -0.194364) (5.45107 0.7567 11.9725) (30.5166 -0.040032 -0.00615836)
239           (30.3297 -0.0535382 -0.194356) (5.45043 0.756461 11.9723) (30.5163 -0.0400157 -0.00595842)
240           (30.3297 -0.0535388 -0.194348) (5.44982 0.75623 11.9721) (30.5159 -0.0399998 -0.00576575)
241           (30.3297 -0.0535392 -0.19434) (5.44923 0.756008 11.9719) (30.5156 -0.0399845 -0.00557576)
242           (30.3297 -0.0535397 -0.194331) (5.44866 0.755793 11.9717) (30.5153 -0.03997 -0.00538627)
243           (30.3297 -0.0535402 -0.194322) (5.4481 0.755586 11.9716) (30.5151 -0.0399564 -0.00519596)
244           (30.3297 -0.0535407 -0.194313) (5.44757 0.755387 11.9715) (30.5149 -0.0399438 -0.00500436)
245           (30.3297 -0.0535415 -0.194304) (5.44707 0.755193 11.9714) (30.5147 -0.0399322 -0.00481301)
246           (30.3297 -0.0535423 -0.194295) (5.44659 0.755005 11.9713) (30.5146 -0.0399216 -0.0046232)
247           (30.3297 -0.0535431 -0.194288) (5.44614 0.754821 11.9712) (30.5145 -0.0399117 -0.00443783)
248           (30.3297 -0.0535438 -0.194283) (5.44571 0.754645 11.9712) (30.5144 -0.0399023 -0.00426419)
249           (30.3297 -0.0535442 -0.194279) (5.44529 0.754477 11.9712) (30.5143 -0.0398931 -0.00410839)
250           (30.3297 -0.0535445 -0.194276) (5.44488 0.754319 11.9711) (30.5141 -0.0398842 -0.00397094)
251           (30.3297 -0.0535445 -0.194274) (5.44449 0.754167 11.9711) (30.514 -0.0398754 -0.00384871)
252           (30.3296 -0.0535445 -0.194274) (5.44413 0.754019 11.9711) (30.5138 -0.0398666 -0.00373624)
253           (30.3296 -0.0535444 -0.194275) (5.44379 0.753874 11.9711) (30.5136 -0.0398578 -0.00362789)
254           (30.3296 -0.0535443 -0.194278) (5.44348 0.753731 11.9712) (30.5134 -0.0398492 -0.00351984)
255           (30.3296 -0.0535442 -0.194282) (5.44319 0.753593 11.9712) (30.5133 -0.039841 -0.00340832)
256           (30.3296 -0.0535441 -0.194286) (5.44291 0.753461 11.9713) (30.5132 -0.0398337 -0.00329105)
257           (30.3296 -0.053544 -0.19429) (5.44264 0.753337 11.9714) (30.5131 -0.0398275 -0.00317047)
258           (30.3296 -0.0535439 -0.194294) (5.44239 0.75322 11.9715) (30.513 -0.0398223 -0.00305216)
259           (30.3296 -0.0535438 -0.194297) (5.44216 0.75311 11.9717) (30.513 -0.0398183 -0.00294254)
260           (30.3296 -0.0535438 -0.194298) (5.44196 0.753008 11.9719) (30.513 -0.0398149 -0.00284664)
261           (30.3296 -0.0535437 -0.194299) (5.44178 0.75291 11.972) (30.513 -0.0398121 -0.00276475)
262           (30.3296 -0.0535438 -0.194299) (5.44162 0.752817 11.9722) (30.513 -0.0398098 -0.00269444)
263           (30.3295 -0.053544 -0.1943) (5.44148 0.752729 11.9724) (30.5129 -0.0398076 -0.00263348)
264           (30.3295 -0.0535442 -0.194302) (5.44135 0.752646 11.9726) (30.5129 -0.0398054 -0.00257835)
265           (30.3295 -0.0535443 -0.194304) (5.44123 0.752568 11.9728) (30.5129 -0.0398032 -0.00252537)
266           (30.3295 -0.0535444 -0.194307) (5.44112 0.752495 11.973) (30.5128 -0.0398008 -0.00247252)
267           (30.3295 -0.0535444 -0.194311) (5.44101 0.752428 11.9732) (30.5127 -0.0397983 -0.00241769)
268           (30.3295 -0.0535445 -0.194314) (5.44091 0.752367 11.9734) (30.5127 -0.0397959 -0.00235943)
269           (30.3295 -0.0535445 -0.194316) (5.44082 0.752309 11.9735) (30.5126 -0.0397936 -0.0022986)
270           (30.3295 -0.0535445 -0.194318) (5.44072 0.752256 11.9737) (30.5126 -0.0397916 -0.00223631)
271           (30.3295 -0.0535446 -0.194319) (5.44063 0.752206 11.9739) (30.5125 -0.0397901 -0.00217412)
272           (30.3295 -0.0535447 -0.194319) (5.44054 0.752158 11.974) (30.5125 -0.0397892 -0.00211487)
273           (30.3295 -0.0535449 -0.194319) (5.44045 0.752113 11.9741) (30.5125 -0.0397888 -0.00205972)
274           (30.3295 -0.0535451 -0.194317) (5.44035 0.75207 11.9742) (30.5125 -0.0397891 -0.00200861)
275           (30.3295 -0.0535453 -0.194316) (5.44026 0.752026 11.9743) (30.5125 -0.0397898 -0.00196199)
276           (30.3295 -0.0535456 -0.194315) (5.44017 0.751983 11.9743) (30.5125 -0.0397908 -0.00191906)
277           (30.3295 -0.053546 -0.194314) (5.44007 0.751938 11.9744) (30.5125 -0.039792 -0.0018786)
278           (30.3295 -0.0535465 -0.194313) (5.43997 0.751893 11.9744) (30.5125 -0.0397931 -0.00184039)
279           (30.3295 -0.0535468 -0.194312) (5.43988 0.751848 11.9744) (30.5125 -0.039794 -0.00180336)
280           (30.3295 -0.0535471 -0.194311) (5.43978 0.751802 11.9744) (30.5125 -0.0397949 -0.00176623)
281           (30.3295 -0.0535474 -0.194311) (5.43968 0.751757 11.9744) (30.5125 -0.0397956 -0.00172905)
282           (30.3295 -0.0535475 -0.19431) (5.43958 0.751712 11.9745) (30.5125 -0.0397961 -0.00169113)
283           (30.3295 -0.0535478 -0.194309) (5.43948 0.751667 11.9745) (30.5125 -0.0397967 -0.00165182)
284           (30.3295 -0.0535481 -0.194308) (5.43939 0.751624 11.9745) (30.5125 -0.0397973 -0.00161196)
285           (30.3295 -0.0535483 -0.194308) (5.43931 0.751582 11.9745) (30.5124 -0.0397978 -0.00157192)
286           (30.3295 -0.0535486 -0.194308) (5.43924 0.751542 11.9746) (30.5124 -0.0397984 -0.00153214)
287           (30.3295 -0.0535488 -0.194309) (5.43917 0.751503 11.9746) (30.5124 -0.0397991 -0.0014943)
288           (30.3295 -0.0535489 -0.19431) (5.43912 0.751466 11.9746) (30.5124 -0.0397999 -0.0014591)
289           (30.3295 -0.0535491 -0.194311) (5.43907 0.75143 11.9747) (30.5124 -0.0398009 -0.00142664)
290           (30.3296 -0.0535494 -0.194313) (5.43903 0.751397 11.9747) (30.5125 -0.0398019 -0.00139761)