# Probe 0 (3 1.5 2.5)
# Probe 1 (4.99 1.5 3.05)
# Probe 2 (5.7 1.5 2.5)
# Time        0             1             2            
0             (0 0 0)       (0 0 0)       (0 0 0)      
1             (10.3408 0.106003 0.0151577) (-0.102471 0.000537788 -0.277458) (7.29161 -0.0595044 -0.14677)
2             (15.8788 0.0790215 -0.248843) (-1.35639 0.0104202 -6.60976) (10.3462 -0.0620709 -0.0915784)
3             (32.7263 0.0478052 -0.558847) (-1.3025 0.00624994 -4.85468) (23.1336 -0.0921309 -0.202967)
4             (42.4961 0.0904768 -0.706459) (2.80012 0.0271925 -9.86834) (30.506 -0.0945218 -0.224485)
5             (42.2233 0.151641 -0.705635) (1.71635 0.0321923 -12.3654) (31.3083 -0.0930368 -0.202205)
6             (35.5274 0.136655 -0.460676) (-1.03138 0.0305227 -13.0168) (28.1076 -0.128601 -0.241854)
7             (29.7245 0.055564 -0.114513) (-2.35506 0.0279774 -13.4507) (25.2696 -0.18176 -0.305411)
8             (28.9046 -0.0264104 0.159342) (-2.1456 0.0295097 -14.2075) (25.2244 -0.206171 -0.3227)
9             (31.9974 -0.0608656 0.281982) (-1.15015 0.0359975 -15.0023) (27.2008 -0.192938 -0.281387)
10            (35.3847 -0.0474942 0.276286) (-0.138857 0.0419942 -15.3471) (29.0642 -0.16543 -0.227831)
11            (36.3947 -0.0296963 0.232751) (0.676709 0.0399445 -14.9945) (29.5746 -0.146977 -0.205118)
12            (35.013 -0.0319419 0.214206) (1.46763 0.0209369 -13.8341) (29.0035 -0.150694 -0.229771)
13            (32.9883 -0.0459465 0.189176) (2.45475 -0.0279908 -11.6706) (28.2663 -0.165912 -0.289406)
14            (31.851 -0.0542609 0.11756) (4.08288 -0.099769 -8.1752) (28.0421 -0.176262 -0.356982)
15            (31.9146 -0.0461542 0.0177495) (5.64341 -0.125412 -4.35026) (28.3836 -0.176175 -0.401748)
16            (32.4143 -0.0284843 -0.0653793) (5.80084 -0.138884 -1.7631) (28.8572 -0.16803 -0.402546)
17            (32.5148 -0.00654697 -0.119314) (4.92696 -0.155076 0.386628) (29.1021 -0.159258 -0.368646)
18            (32.0132 0.00982081 -0.129551) (4.01311 -0.165949 2.64962) (29.0966 -0.150271 -0.327298)
19            (31.3013 0.0136614 -0.102035) (3.80372 -0.164726 4.73335) (29.057 -0.134784 -0.304645)
20            (30.8209 0.00892244 -0.0634762) (4.28295 -0.152849 6.63095) (29.1941 -0.108593 -0.305567)
21            (30.7363 0.00551321 -0.0454225) (4.86442 -0.135659 8.34099) (29.5829 -0.0753279 -0.312517)
22            (30.863 0.00916749 -0.058908) (5.2796 -0.114736 9.89519) (30.1016 -0.0415972 -0.301941)
23            (30.9312 0.0186304 -0.0877437) (5.39638 -0.0938978 11.3233) (30.5669 -0.0125616 -0.263125)
24            (30.7983 0.0272372 -0.106984) (5.21794 -0.0779316 12.6619) (30.8684 0.00948301 -0.205945)
25            (30.547 0.0301463 -0.103785) (4.83444 -0.0699839 13.9363) (31.015 0.022214 -0.150329)
26            (30.3296 0.0275237 -0.0853402) (4.33305 -0.0707483 15.1284) (31.0477 0.0260195 -0.111294)
27            (30.2298 0.0232083 -0.0683627) (3.78047 -0.0764006 16.1501) (30.9936 0.0245388 -0.0937705)
28            (30.2463 0.0223341 -0.064893) (3.21326 -0.0783671 16.8427) (30.8582 0.0211217 -0.0926288)
29            (30.3106 0.0267207 -0.0739804) (2.72189 -0.0660005 17.0123) (30.6511 0.0178157 -0.0980643)
30            (30.3598 0.0334883 -0.0857327) (2.63077 -0.0302653 16.5227) (30.3954 0.0155557 -0.0997364)
31            (30.3557 0.0380497 -0.0907406) (3.07608 0.0321267 15.4957) (30.1205 0.0145397 -0.0904538)
32            (30.3079 0.0379854 -0.0861644) (4.3295 0.114189 13.7825) (29.8653 0.0151005 -0.0679767)
33            (30.2457 0.0342625 -0.0762429) (5.94854 0.199907 11.9386) (29.6538 0.0171892 -0.0331998)
34            (30.1926 0.0298725 -0.0670969) (7.07767 0.260241 10.177) (29.5019 0.0201783 0.0110064)
35            (30.1679 0.0274208 -0.0630523) (7.1573 0.274168 8.95544) (29.4253 0.0233229 0.060708)
36            (30.1697 0.0273473 -0.0648375) (6.22452 0.231361 8.40701) (29.4293 0.0261263 0.111658)
37            (30.1842 0.0282484 -0.0699552) (4.71002 0.140159 8.49696) (29.5143 0.0285225 0.159855)
38            (30.2022 0.0283638 -0.0752153) (2.99221 0.024749 9.08553) (29.6562 0.0306787 0.200908)
39            (30.2116 0.0269123 -0.0779851) (1.53855 -0.0753991 9.91505) (29.802 0.0312907 0.230925)
40            (30.208 0.0243264 -0.0775291) (0.540255 -0.122002 10.7312) (29.8986 0.0278378 0.245463)
41            (30.1959 0.0215898 -0.0748744) (-0.0698373 -0.0991324 11.2845) (29.8993 0.0189843 0.242015)
42            (30.1806 0.0193683 -0.0714942) (-0.347253 -0.0146978 11.3851) (29.7847 0.00542905 0.222271)
43            (30.1681 0.0176995 -0.0686013) (-0.0996969 0.116094 11.0425) (29.5907 -0.0107392 0.191317)
44            (30.1634 0.016291 -0.0668381) (0.60291 0.278371 10.3212) (29.3869 -0.026454 0.155122)
45            (30.1658 0.0149144 -0.0660726) (1.20355 0.447043 9.40537) (29.224 -0.0384494 0.118368)
46            (30.1719 0.0135991 -0.0656892) (1.40269 0.613552 8.72067) (29.1099 -0.044524 0.0838094)
47            (30.1793 0.0125251 -0.06508) (1.41409 0.732732 8.28534) (29.0119 -0.0446572 0.053543)
48            (30.1856 0.0118297 -0.0638623) (1.4258 0.770664 8.18946) (28.8804 -0.0407621 0.0308388)
49            (30.1898 0.0114913 -0.0619822) (1.43828 0.724577 8.39903) (28.6863 -0.0353634 0.0202464)
50            (30.1929 0.0113542 -0.0596591) (1.41271 0.618738 8.82336) (28.4451 -0.0301664 0.0252842)
51            (30.1965 0.0112356 -0.0572228) (1.40079 0.482525 9.35541) (28.2088 -0.0250764 0.0452198)
52            (30.2017 0.0110348 -0.0549401) (1.44405 0.340014 9.89819) (28.0335 -0.0183002 0.0736215)
53            (30.2096 0.0107502 -0.0529571) (1.56195 0.210133 10.3616) (27.9453 -0.00761922 0.100328)
54            (30.219 0.0104253 -0.0512804) (1.75408 0.103714 10.6722) (27.9315 0.00772105 0.115991)
55            (30.2273 0.0100774 -0.0498015) (2.00286 0.0250637 10.7821) (27.9559 0.0261195 0.116673)
56            (30.2334 0.00969216 -0.0484141) (2.27767 -0.0250715 10.6792) (27.9784 0.0440806 0.105738)
57            (30.2375 0.00924018 -0.0471016) (2.54068 -0.0496997 10.3926) (27.9739 0.0577573 0.0916926)
58            (30.2401 0.00871582 -0.0458805) (2.75804 -0.05484 9.9867) (27.9408 0.0649901 0.0831426)
59            (30.2418 0.00814612 -0.0447688) (2.89843 -0.0480917 9.54865) (27.8973 0.066203 0.0837985)
60            (30.2435 0.00757698 -0.0437727) (2.94387 -0.0367648 9.16492) (27.8669 0.0640407 0.0906987)
61            (30.2453 0.00704337 -0.0428709) (2.89994 -0.0260184 8.89808) (27.8664 0.0620263 0.0964593)
62            (30.2468 0.00655602 -0.0420167) (2.79402 -0.0183554 8.77576) (27.8993 0.0627076 0.0938874)
63            (30.2475 0.00610327 -0.0411707) (2.66497 -0.0142505 8.79389) (27.9561 0.0665313 0.0803111)
64            (30.2474 0.00567098 -0.0403202) (2.55143 -0.0131418 8.92639) (28.0202 0.0719818 0.0591505)
65            (30.2466 0.0052495 -0.0394772) (2.48761 -0.0140697 9.1353) (28.0761 0.0766356 0.0378976)
66            (30.2453 0.00484059 -0.0386701) (2.48451 -0.0159171 9.37653) (28.1143 0.0784989 0.0238874)
67            (30.2437 0.004447 -0.0379317) (2.52981 -0.0175995 9.60896) (28.1336 0.0769481 0.0203914)
68            (30.242 0.00407282 -0.037283) (2.60643 -0.0182538 9.80243) (28.1398 0.0729035 0.0251811)
69            (30.2405 0.00371599 -0.0367428) (2.69624 -0.0172814 9.93807) (28.1423 0.068222 0.0322867)
70            (30.2392 0.00337183 -0.0363184) (2.78281 -0.014447 10.0126) (28.1494 0.0647831 0.0354019)
71            (30.2378 0.00303474 -0.0360063) (2.85296 -0.00987625 10.0355) (28.1653 0.0636622 0.0310364)
72            (30.2363 0.00270154 -0.0357942) (2.89832 -0.00402046 10.0238) (28.1889 0.0647471 0.0197879)
73            (30.2345 0.00237227 -0.0356601) (2.91608 0.00241646 9.996) (28.2154 0.0669463 0.00542543)
74            (30.2325 0.00205249 -0.0355801) (2.90879 0.00861088 9.96812) (28.2391 0.0688115 -0.00733286)
75            (30.2305 0.00175063 -0.0355382) (2.88278 0.0137681 9.95146) (28.2564 0.0692233 -0.0149789)
76            (30.2287 0.0014743 -0.0355233) (2.84611 0.0172484 9.95183) (28.2662 0.0678128 -0.0163496)
77            (30.2271 0.00122814 -0.0355299) (2.80641 0.0186702 9.9698) (28.2704 0.0649802 -0.0125493)
78            (30.2257 0.00101121 -0.0355532) (2.77009 0.0179611 10.0023) (28.2716 0.0616259 -0.00606342)
79            (30.2245 0.000817104 -0.0355891) (2.74286 0.0153618 10.0435) (28.2721 0.0586155 0.000405208)
80            (30.2234 0.000638817 -0.0356324) (2.72822 0.0113729 10.0869) (28.2731 0.0565328 0.00477354)
81            (30.2224 0.000470705 -0.0356807) (2.7269 0.00664404 10.126) (28.2743 0.0555239 0.00609741)
82            (30.2215 0.00030987 -0.0357329) (2.73674 0.00184816 10.156) (28.2746 0.0553114 0.00468503)
83            (30.2206 0.000156779 -0.0357909) (2.75355 -0.00242868 10.1743) (28.273 0.0553768 0.00181527)
84            (30.2198 1.36559e-05 -0.035856) (2.77247 -0.00576653 10.1806) (28.2692 0.0552099 -0.000833628)
85            (30.2191 -0.000116585 -0.0359268) (2.78964 -0.00794814 10.1769) (28.2636 0.0545106 -0.00182451)
86            (30.2184 -0.000232932 -0.0360015) (2.80168 -0.00896307 10.1663) (28.2579 0.0532666 -0.00044974)
87            (30.2179 -0.000338352 -0.036079) (2.80739 -0.00898321 10.1522) (28.253 0.0516606 0.00318431)
88            (30.2176 -0.000431438 -0.0361543) (2.80774 -0.00830818 10.1378) (28.2487 0.0499987 0.00816276)
89            (30.2173 -0.000513554 -0.0362275) (2.80273 -0.00730186 10.1258) (28.2448 0.0485469 0.0134423)
90            (30.2171 -0.00058674 -0.0362978) (2.79356 -0.00632196 10.1176) (28.2404 0.0474447 0.0181517)
91            (30.217 -0.00065221 -0.0363643) (2.78217 -0.00566017 10.1135) (28.2346 0.0467007 0.0218626)
92            (30.2169 -0.000709381 -0.0364261) (2.7708 -0.00550054 10.1131) (28.2274 0.0462206 0.0246641)
93            (30.2168 -0.000756743 -0.0364833) (2.76154 -0.00590639 10.1151) (28.2192 0.0458605 0.0270088)
94            (30.2166 -0.000793186 -0.0365358) (2.75585 -0.00683459 10.1181) (28.2109 0.0454916 0.0294327)
95            (30.2165 -0.000818703 -0.0365835) (2.75429 -0.0081659 10.1204) (28.2035 0.0450426 0.0322987)
96            (30.2164 -0.000834365 -0.0366266) (2.75642 -0.00974263 10.1209) (28.1976 0.0445004 0.0356819)
97            (30.2163 -0.000841641 -0.0366666) (2.7611 -0.0114027 10.119) (28.1932 0.04389 0.0394165)
98            (30.2163 -0.000841759 -0.0367043) (2.76685 -0.013006 10.1145) (28.1897 0.0432581 0.0432252)
99            (30.2163 -0.000836158 -0.0367403) (2.77221 -0.0144518 10.108) (28.1864 0.0426502 0.0468573)
100           (30.2163 -0.000826292 -0.0367741) (2.77642 -0.0156773 10.1003) (28.1828 0.0420991 0.0501612)
101           (30.2163 -0.00081342 -0.0368053) (2.77937 -0.0166536 10.0925) (28.1787 0.0416166 0.0531089)
102           (30.2163 -0.000798165 -0.0368351) (2.78054 -0.0174321 10.0853) (28.1741 0.0411544 0.0558367)
103           (30.2164 -0.00078106 -0.0368644) (2.7796 -0.0180723 10.0793) (28.1692 0.0406767 0.0585118)
104           (30.2164 -0.000762726 -0.0368931) (2.77651 -0.0186149 10.0752) (28.1644 0.0401788 0.0612223)
105           (30.2164 -0.000743926 -0.0369208) (2.77174 -0.0190768 10.073) (28.16 0.0396746 0.0639527)
106           (30.2164 -0.000725664 -0.0369474) (2.76608 -0.0194543 10.0726) (28.156 0.0391745 0.0666299)
107           (30.2164 -0.000708416 -0.0369738) (2.76047 -0.0197216 10.0738) (28.1525 0.0386771 0.0691666)
108           (30.2164 -0.000692198 -0.0369996) (2.75574 -0.0198494 10.076) (28.1491 0.0381729 0.0714953)
109           (30.2163 -0.000676905 -0.0370251) (2.75243 -0.0198236 10.0786) (28.1458 0.0376515 0.0735968)
110           (30.2162 -0.000662553 -0.037051) (2.7507 -0.019643 10.0812) (28.1422 0.0371112 0.0755022)
111           (30.2161 -0.000649225 -0.0370783) (2.75038 -0.0193106 10.0834) (28.1385 0.0365616 0.0772629)
112           (30.2161 -0.000636604 -0.0371072) (2.75105 -0.0188269 10.0849) (28.1347 0.036014 0.0789227)
113           (30.216 -0.00062444 -0.0371378) (2.7522 -0.0181864 10.0857) (28.131 0.0354737 0.0805072)
114           (30.216 -0.000612715 -0.0371696) (2.75336 -0.0173863 10.0858) (28.1273 0.0349403 0.0820206)
115           (30.2159 -0.000601417 -0.0372021) (2.75414 -0.0164375 10.0853) (28.1237 0.0344128 0.0834472)
116           (30.2159 -0.000590728 -0.0372344) (2.7543 -0.0153685 10.0846) (28.1202 0.033892 0.0847607)
117           (30.2159 -0.000580958 -0.0372663) (2.75375 -0.0142208 10.0837) (28.1168 0.0333843 0.0859375)
118           (30.2158 -0.00057173 -0.0372972) (2.75256 -0.013039 10.0828) (28.1135 0.032899 0.0869683)
119           (30.2158 -0.000562743 -0.0373268) (2.75093 -0.0118636 10.0821) (28.1105 0.0324397 0.0878626)
120           (30.2158 -0.000553846 -0.0373546) (2.74911 -0.0107258 10.0815) (28.1076 0.0320006 0.0886466)
121           (30.2158 -0.00054463 -0.0373804) (2.74729 -0.00964711 10.0811) (28.1049 0.0315743 0.0893523)
122           (30.2157 -0.000535158 -0.0374034) (2.74562 -0.00864528 10.0807) (28.1022 0.0311581 0.090007)
123           (30.2157 -0.000526076 -0.0374239) (2.74418 -0.00773802 10.0805) (28.0996 0.0307546 0.0906275)
124           (30.2157 -0.000517869 -0.0374428) (2.74295 -0.00694351 10.0802) (28.097 0.0303701 0.0912178)
125           (30.2156 -0.000510308 -0.0374611) (2.7419 -0.00627559 10.08) (28.0944 0.0300146 0.0917709)
126           (30.2156 -0.000503127 -0.0374779) (2.741 -0.00573729 10.0797) (28.092 0.0296971 0.0922772)
127           (30.2155 -0.00049638 -0.0374926) (2.74024 -0.00531915 10.0794) (28.0898 0.0294194 0.0927327)
128           (30.2155 -0.000489562 -0.0375055) (2.7396 -0.00500375 10.0791) (28.0877 0.0291771 0.0931412)
129           (30.2155 -0.000482062 -0.0375173) (2.73907 -0.00477156 10.0787) (28.0858 0.028965 0.0935105)
130           (30.2154 -0.000473957 -0.0375282) (2.73862 -0.00460542 10.0781) (28.0839 0.0287795 0.0938483)
131           (30.2154 -0.000466455 -0.0375383) (2.73823 -0.00449491 10.0776) (28.0822 0.0286245 0.0941458)
132           (30.2154 -0.000460073 -0.0375475) (2.73774 -0.0044271 10.077) (28.0807 0.028491 0.0944158)
133           (30.2154 -0.000453568 -0.0375561) (2.73729 -0.00438152 10.0763) (28.0792 0.028361 0.0946809)
134           (30.2154 -0.000446871 -0.0375644) (2.7369 -0.00435713 10.0755) (28.0776 0.0282497 0.0949193)
135           (30.2154 -0.000440281 -0.0375717) (2.73645 -0.00434627 10.0747) (28.0762 0.0281618 0.095135)
136           (30.2154 -0.000433038 -0.0375778) (2.73603 -0.00433594 10.074) (28.0748 0.0280989 0.095328)
137           (30.2154 -0.000426179 -0.037583) (2.73553 -0.0043279 10.0732) (28.0734 0.0280477 0.0955036)
138           (30.2154 -0.000419228 -0.0375875) (2.73504 -0.00431397 10.0725) (28.072 0.0280128 0.0956633)
139           (30.2154 -0.000412638 -0.0375918) (2.73451 -0.00430093 10.0719) (28.0708 0.027988 0.0958033)
140           (30.2154 -0.000407211 -0.037596) (2.73393 -0.00428431 10.0713) (28.0696 0.0279746 0.0959344)
141           (30.2155 -0.000402219 -0.0376002) (2.73344 -0.00426028 10.0706) (28.0683 0.027983 0.0960508)
142           (30.2155 -0.000397697 -0.0376038) (2.73293 -0.00423808 10.0701) (28.0671 0.0279935 0.096149)
143           (30.2155 -0.000393499 -0.0376069) (2.7324 -0.00421983 10.0696) (28.0662 0.0280034 0.0962314)
144           (30.2155 -0.000389023 -0.0376098) (2.73191 -0.00420581 10.069) (28.065 0.0280251 0.0963016)
145           (30.2155 -0.000383629 -0.0376125) (2.73166 -0.00419006 10.0683) (28.0637 0.0280789 0.09635)
146           (30.2155 -0.000378434 -0.037615) (2.73141 -0.00417986 10.0676) (28.0626 0.0281253 0.0963883)
147           (30.2155 -0.000373878 -0.037617) (2.73114 -0.00417815 10.0671) (28.0616 0.0281606 0.0964211)
148           (30.2155 -0.000369964 -0.0376189) (2.73084 -0.00418703 10.0665) (28.0607 0.0281892 0.0964477)
149           (30.2155 -0.000366567 -0.0376214) (2.73053 -0.00420759 10.0659) (28.0599 0.0282175 0.0964658)
150           (30.2155 -0.00036378 -0.0376242) (2.73027 -0.00423942 10.0654) (28.0592 0.0282525 0.0964727)
151           (30.2155 -0.000361871 -0.0376274) (2.73009 -0.00427992 10.0649) (28.0585 0.0283 0.0964665)
152           (30.2155 -0.000361931 -0.0376309) (2.73 -0.00432536 10.0644) (28.0578 0.0283618 0.0964475)
153           (30.2155 -0.000363669 -0.0376345) (2.72994 -0.00437296 10.064) (28.0571 0.0284319 0.0964191)
154           (30.2155 -0.000364763 -0.0376387) (2.72987 -0.00442201 10.0637) (28.0564 0.0285008 0.0963851)
155           (30.2155 -0.000364384 -0.0376435) (2.72973 -0.00447293 10.0634) (28.0556 0.0285639 0.0963494)
156           (30.2155 -0.000363621 -0.0376484) (2.72953 -0.00452661 10.0632) (28.0549 0.0286217 0.0963141)
157           (30.2155 -0.000363892 -0.0376533) (2.72926 -0.0045845 10.0631) (28.0542 0.0286765 0.0962791)
158           (30.2155 -0.000366038 -0.0376585) (2.72894 -0.00464791 10.063) (28.0536 0.0287307 0.0962429)
159           (30.2155 -0.000369569 -0.0376639) (2.72862 -0.00471683 10.063) (28.053 0.0287863 0.0962024)
160           (30.2155 -0.000374061 -0.0376691) (2.72834 -0.00478886 10.063) (28.0524 0.0288443 0.0961548)
161           (30.2155 -0.000379798 -0.0376737) (2.72816 -0.00485987 10.063) (28.0518 0.028904 0.0960986)
162           (30.2155 -0.000386298 -0.0376778) (2.72807 -0.00492593 10.063) (28.0513 0.0289631 0.0960345)
163           (30.2155 -0.000392675 -0.0376814) (2.72808 -0.00498476 10.063) (28.0508 0.0290194 0.0959651)
164           (30.2155 -0.000398605 -0.037685) (2.72814 -0.00503643 10.0629) (28.0504 0.0290716 0.0958929)
165           (30.2155 -0.000404075 -0.0376883) (2.72824 -0.00508279 10.0628) (28.0499 0.0291199 0.0958203)
166           (30.2155 -0.00040949 -0.0376911) (2.72833 -0.00512627 10.0627) (28.0495 0.029165 0.0957484)
167           (30.2155 -0.000415513 -0.0376934) (2.7284 -0.00516915 10.0627) (28.0491 0.0292078 0.0956774)
168           (30.2155 -0.000422795 -0.0376953) (2.72843 -0.00521286 10.0626) (28.0488 0.0292487 0.0956069)
169           (30.2155 -0.000430724 -0.0376975) (2.72844 -0.00525736 10.0625) (28.0484 0.0292882 0.0955362)
170           (30.2155 -0.000437899 -0.0377006) (2.72841 -0.00530113 10.0625) (28.0481 0.0293262 0.095465)
171           (30.2155 -0.000444481 -0.0377039) (2.72836 -0.00534209 10.0625) (28.0477 0.0293631 0.0953933)
172           (30.2155 -0.000451171 -0.0377064) (2.72831 -0.00537906 10.0626) (28.0474 0.0293993 0.0953214)
173           (30.2155 -0.000458072 -0.0377078) (2.72825 -0.00541195 10.0627) (28.0471 0.0294353 0.0952499)
174           (30.2155 -0.000464754 -0.0377086) (2.72819 -0.00544149 10.0628) (28.0467 0.0294723 0.0951786)
175           (30.2155 -0.000471027 -0.0377092) (2.72814 -0.00546839 10.0629) (28.0464 0.0295108 0.0951077)
176           (30.2155 -0.00047764 -0.0377097) (2.72808 -0.00549298 10.063) (28.0462 0.0295511 0.0950368)
177           (30.2155 -0.000484952 -0.0377096) (2.72804 -0.00551539 10.0632) (28.0459 0.0295927 0.0949659)
178           (30.2155 -0.000492304 -0.037709) (2.72801 -0.00553542 10.0634) (28.0456 0.029635 0.0948953)
179           (30.2155 -0.000498982 -0.0377085) (2.72799 -0.00555248 10.0635) (28.0454 0.0296772 0.0948255)
180           (30.2155 -0.000505184 -0.037708) (2.72799 -0.00556564 10.0637) (28.0452 0.029719 0.0947571)
181           (30.2155 -0.000511499 -0.0377072) (2.72801 -0.0055739 10.0639) (28.045 0.0297606 0.0946908)
182           (30.2155 -0.000518394 -0.0377063) (2.72805 -0.00557647 10.0641) (28.0448 0.0298028 0.094627)
183           (30.2156 -0.000525126 -0.0377054) (2.7281 -0.00557309 10.0643) (28.0446 0.0298464 0.0945661)
184           (30.2156 -0.000530658 -0.0377044) (2.72815 -0.00556417 10.0645) (28.0445 0.0298923 0.0945081)
185           (30.2156 -0.000535189 -0.0377028) (2.7282 -0.0055506 10.0646) (28.0444 0.029941 0.094453)
186           (30.2156 -0.000539176 -0.0377008) (2.72825 -0.0055336 10.0648) (28.0443 0.0299926 0.0944005)
187           (30.2156 -0.000543459 -0.0376983) (2.72829 -0.00551455 10.065) (28.0442 0.0300465 0.0943501)
188           (30.2156 -0.000549188 -0.0376953) (2.72832 -0.00549453 10.0651) (28.0441 0.0301017 0.0943015)
189           (30.2156 -0.000556989 -0.0376919) (2.72834 -0.00547451 10.0653) (28.044 0.0301573 0.094254)
190           (30.2156 -0.000565803 -0.0376886) (2.72835 -0.00545511 10.0655) (28.044 0.0302124 0.0942072)
191           (30.2156 -0.000573822 -0.0376858) (2.72836 -0.00543677 10.0657) (28.0439 0.0302668 0.0941607)
192           (30.2156 -0.000580695 -0.0376836) (2.72836 -0.00542009 10.0658) (28.0439 0.0303203 0.0941144)
193           (30.2156 -0.000586871 -0.0376817) (2.72836 -0.0054056 10.066) (28.0438 0.030373 0.0940684)
194           (30.2156 -0.00059276 -0.0376807) (2.72836 -0.00539349 10.0662) (28.0438 0.0304247 0.0940228)
195           (30.2156 -0.000598698 -0.0376804) (2.72835 -0.00538388 10.0663) (28.0437 0.0304756 0.0939778)
196           (30.2156 -0.000604916 -0.0376802) (2.72835 -0.00537694 10.0665) (28.0437 0.0305253 0.0939333)
197           (30.2156 -0.000611381 -0.03768) (2.72835 -0.00537271 10.0667) (28.0436 0.0305735 0.0938891)
198           (30.2156 -0.00061788 -0.0376794) (2.72835 -0.00537091 10.0668) (28.0436 0.03062 0.0938451)
199           (30.2156 -0.000624133 -0.0376787) (2.72835 -0.00537102 10.0669) (28.0435 0.0306644 0.0938009)
200           (30.2156 -0.00063064 -0.0376776) (2.72835 -0.00537224 10.0671) (28.0435 0.0307068 0.0937563)
201           (30.2156 -0.000637844 -0.037676) (2.72835 -0.00537377 10.0672) (28.0434 0.030747 0.0937114)
202           (30.2156 -0.000645426 -0.0376738) (2.72835 -0.00537557 10.0674) (28.0434 0.0307854 0.0936662)
203           (30.2156 -0.000653192 -0.0376711) (2.72835 -0.00537819 10.0675) (28.0433 0.0308221 0.0936209)
204           (30.2156 -0.00066079 -0.0376684) (2.72834 -0.00538198 10.0677) (28.0433 0.0308577 0.0935756)
205           (30.2156 -0.000667979 -0.0376658) (2.72834 -0.00538712 10.0678) (28.0432 0.0308922 0.0935305)
206           (30.2156 -0.000674799 -0.0376638) (2.72833 -0.0053936 10.068) (28.0432 0.0309255 0.0934856)
207           (30.2156 -0.000681298 -0.0376626) (2.72832 -0.00540137 10.0681) (28.0432 0.0309573 0.0934409)
208           (30.2156 -0.000687744 -0.0376617) (2.72832 -0.00541025 10.0683) (28.0431 0.0309873 0.0933964)
209           (30.2156 -0.000694111 -0.0376608) (2.72832 -0.00542046 10.0685) (28.0431 0.0310152 0.0933519)
210           (30.2156 -0.000700118 -0.0376594) (2.72832 -0.00543229 10.0686) (28.0431 0.0310409 0.0933074)
211           (30.2156 -0.000705832 -0.0376577) (2.72833 -0.00544573 10.0688) (28.043 0.0310648 0.093263)
212           (30.2156 -0.000711845 -0.0376559) (2.72835 -0.00546008 10.069) (28.043 0.0310872 0.0932189)
213           (30.2156 -0.000718524 -0.0376541) (2.72838 -0.0054743 10.0691) (28.043 0.0311088 0.0931756)
214           (30.2156 -0.000725391 -0.0376526) (2.72841 -0.00548759 10.0693) (28.043 0.0311302 0.0931336)
215           (30.2156 -0.000731655 -0.0376515) (2.72846 -0.00549962 10.0694) (28.0429 0.0311518 0.0930934)
216           (30.2156 -0.000737303 -0.0376508) (2.7285 -0.00551038 10.0696) (28.0429 0.0311736 0.0930553)
217           (30.2156 -0.000742691 -0.0376503) (2.72855 -0.00552 10.0698) (28.0429 0.0311956 0.0930195)
218           (30.2156 -0.000747798 -0.0376502) (2.72859 -0.0055288 10.0699) (28.0429 0.0312175 0.0929859)
219           (30.2156 -0.000752668 -0.0376505) (2.72862 -0.00553735 10.0701) (28.0429 0.0312391 0.0929541)
220           (30.2156 -0.000757714 -0.0376506) (2.72864 -0.00554601 10.0703) (28.0428 0.0312602 0.0929238)
221           (30.2156 -0.000762796 -0.0376501) (2.72865 -0.00555498 10.0704) (28.0428 0.0312809 0.0928947)
222           (30.2156 -0.000767491 -0.0376488) (2.72866 -0.00556437 10.0706) (28.0428 0.0313011 0.0928665)
223           (30.2156 -0.000771365 -0.0376467) (2.72866 -0.0055743 10.0708) (28.0428 0.0313208 0.0928392)
224           (30.2156 -0.000774752 -0.0376438) (2.72867 -0.00558488 10.0709) (28.0428 0.0313402 0.0928127)
225           (30.2156 -0.000778424 -0.0376401) (2.72869 -0.00559632 10.0711) (28.0428 0.0313593 0.092787)
226           (30.2156 -0.000782417 -0.0376359) (2.72871 -0.00560866 10.0712) (28.0427 0.031378 0.0927623)
227           (30.2156 -0.000786185 -0.037632) (2.72875 -0.00562158 10.0714) (28.0427 0.0313964 0.0927385)
228           (30.2156 -0.000789284 -0.0376286) (2.72879 -0.00563454 10.0715) (28.0427 0.0314143 0.0927157)
229           (30.2156 -0.000791553 -0.0376261) (2.72884 -0.00564745 10.0717) (28.0427 0.031432 0.0926938)
230           (30.2156 -0.000793499 -0.0376249) (2.72889 -0.00566078 10.0718) (28.0427 0.0314492 0.0926726)
231           (30.2156 -0.000795681 -0.0376246) (2.72893 -0.00567502 10.0719) (28.0427 0.031466 0.092652)
232           (30.2156 -0.000798465 -0.0376243) (2.72897 -0.0056902 10.0721) (28.0427 0.0314822 0.0926317)
233           (30.2156 -0.000801813 -0.0376236) (2.72901 -0.00570585 10.0722) (28.0427 0.0314979 0.0926114)
234           (30.2156 -0.000804995 -0.0376225) (2.72904 -0.00572134 10.0723) (28.0427 0.031513 0.0925909)
235           (30.2156 -0.000807695 -0.0376209) (2.72906 -0.00573641 10.0725) (28.0427 0.0315275 0.0925701)
236           (30.2156 -0.000810057 -0.0376191) (2.72908 -0.00575089 10.0727) (28.0427 0.0315413 0.0925493)
237           (30.2156 -0.000812443 -0.0376177) (2.7291 -0.00576435 10.0728) (28.0427 0.0315545 0.0925287)
238           (30.2156 -0.000815052 -0.0376165) (2.72912 -0.00577612 10.073) (28.0427 0.031567 0.0925085)
239           (30.2156 -0.000817518 -0.0376151) (2.72915 -0.00578573 10.0732) (28.0427 0.0315788 0.0924892)
240           (30.2156 -0.00081943 -0.0376134) (2.72919 -0.00579319 10.0733) (28.0427 0.0315899 0.0924708)
241           (30.2156 -0.000820776 -0.0376112) (2.72923 -0.00579878 10.0735) (28.0427 0.0316003 0.0924535)
242           (30.2156 -0.000821686 -0.0376092) (2.72927 -0.00580264 10.0737) (28.0427 0.0316099 0.0924374)
243           (30.2156 -0.00082231 -0.0376075) (2.72931 -0.0058048 10.0739) (28.0427 0.0316188 0.0924222)
244           (30.2156 -0.000822828 -0.0376058) (2.72935 -0.0058057 10.0741) (28.0427 0.0316272 0.092408)
245           (30.2156 -0.000823628 -0.0376036) (2.72939 -0.00580608 10.0743) (28.0427 0.0316351 0.0923947)
246           (30.2156 -0.000824947 -0.0376011) (2.72942 -0.00580644 10.0744) (28.0427 0.0316427 0.0923822)
247           (30.2156 -0.000826925 -0.0375986) (2.72946 -0.00580677 10.0746) (28.0427 0.03165 0.0923705)
248           (30.2156 -0.000829617 -0.0375961) (2.72949 -0.00580691 10.0748) (28.0427 0.0316569 0.0923597)
249           (30.2156 -0.000832747 -0.0375934) (2.72954 -0.00580674 10.075) (28.0428 0.0316633 0.0923497)
250           (30.2156 -0.000835691 -0.0375902) (2.72958 -0.00580618 10.0752) (28.0428 0.0316693 0.0923405)
251           (30.2156 -0.000837729 -0.0375868) (2.72964 -0.00580512 10.0753) (28.0428 0.0316747 0.092332)
252           (30.2156 -0.000839011 -0.0375832) (2.72969 -0.00580338 10.0755) (28.0428 0.0316795 0.0923242)
253           (30.2156 -0.000840196 -0.037579) (2.72975 -0.00580083 10.0757) (28.0428 0.0316836 0.0923169)
254           (30.2156 -0.000841643 -0.0375742) (2.7298 -0.00579769 10.0758) (28.0428 0.0316872 0.0923101)
255           (30.2156 -0.000843684 -0.0375687) (2.72985 -0.00579438 10.076) (28.0429 0.0316902 0.0923035)
256           (30.2156 -0.00084644 -0.0375625) (2.72989 -0.00579137 10.0762) (28.0429 0.0316927 0.092297)
257           (30.2156 -0.000849666 -0.0375558) (2.72993 -0.00578896 10.0763) (28.0429 0.0316948 0.0922903)
258           (30.2156 -0.000852954 -0.037549) (2.72995 -0.00578718 10.0765) (28.043 0.0316965 0.0922833)
259           (30.2156 -0.000855698 -0.0375428) (2.72997 -0.00578582 10.0767) (28.043 0.0316978 0.0922759)
260           (30.2156 -0.000857948 -0.0375375) (2.73 -0.00578445 10.0769) (28.043 0.0316986 0.0922681)
261           (30.2157 -0.00086011 -0.0375334) (2.73002 -0.00578254 10.077) (28.0431 0.0316991 0.0922599)
262           (30.2157 -0.000861903 -0.0375299) (2.73005 -0.00577949 10.0772) (28.0431 0.0316991 0.0922515)
263           (30.2157 -0.00086304 -0.0375266) (2.73009 -0.00577474 10.0774) (28.0431 0.0316987 0.0922429)
264           (30.2157 -0.000863475 -0.0375229) (2.73014 -0.00576797 10.0776) (28.0432 0.031698 0.0922342)
265           (30.2157 -0.000863718 -0.0375186) (2.73019 -0.00575912 10.0778) (28.0432 0.0316972 0.0922255)
266           (30.2157 -0.000864364 -0.0375141) (2.73024 -0.00574838 10.0779) (28.0433 0.0316965 0.0922168)
267           (30.2157 -0.000865451 -0.0375094) (2.73028 -0.00573612 10.0781) (28.0433 0.0316959 0.0922081)
268           (30.2157 -0.000866636 -0.0375048) (2.73033 -0.00572264 10.0783) (28.0434 0.0316954 0.0921994)
269           (30.2157 -0.000867626 -0.0375004) (2.73036 -0.00570815 10.0785) (28.0434 0.031695 0.0921907)
270           (30.2157 -0.00086802 -0.0374967) (2.73039 -0.00569275 10.0787) (28.0435 0.0316948 0.092182)
271           (30.2157 -0.000867595 -0.0374936) (2.73041 -0.00567638 10.079) (28.0435 0.0316945 0.0921733)
272           (30.2157 -0.000866417 -0.0374912) (2.73042 -0.00565884 10.0792) (28.0436 0.0316943 0.0921647)
273           (30.2157 -0.000865021 -0.0374891) (2.73043 -0.00563991 10.0794) (28.0436 0.0316942 0.0921561)
274           (30.2157 -0.000863525 -0.0374869) (2.73044 -0.00561947 10.0797) (28.0437 0.0316941 0.0921477)
275           (30.2157 -0.000861713 -0.0374842) (2.73044 -0.00559756 10.0799) (28.0437 0.031694 0.0921393)
276           (30.2157 -0.000859694 -0.0374808) (2.73045 -0.00557429 10.0802) (28.0438 0.031694 0.0921312)
277           (30.2157 -0.000857902 -0.0374769) (2.73046 -0.00555005 10.0804) (28.0439 0.0316941 0.0921232)
278           (30.2158 -0.000856506 -0.0374731) (2.73048 -0.00552564 10.0807) (28.0439 0.0316942 0.0921154)
279           (30.2158 -0.000855493 -0.0374698) (2.7305 -0.00550195 10.081) (28.044 0.0316944 0.0921078)
280           (30.2158 -0.000854717 -0.0374675) (2.73053 -0.00547978 10.0812) (28.044 0.0316946 0.0921005)
281           (30.2158 -0.000854051 -0.0374662) (2.73056 -0.00545976 10.0815) (28.0441 0.0316947 0.0920933)