# Probe 0 (-1 0 0)
# Probe 1 (1 0 0)
# Probe 2 (1.7 0 0)
# Time        0             1             2            
0             (0 0 0)       (0 0 0)       (0 0 0)      
1             (7.10419 0.0593223 0.13223) (2.79458 -0.0279424 -0.0794952) (4.84485 -0.0331838 -0.0671793)
2             (13.7399 0.0220982 -0.0260464) (5.04614 -0.0504434 -0.123869) (9.70444 -0.0415893 -0.0628993)
3             (31.2597 -0.0356121 -0.310904) (11.1367 -0.112351 -0.262961) (21.1992 -0.117821 -0.200183)
4             (42.26 0.0292986 -0.113994) (15.8303 -0.155443 -0.399998) (30.4438 -0.303227 -0.336136)
5             (40.8444 0.10222 0.153196) (17.0317 -0.165214 -0.424361) (31.685 -0.452904 -0.48893)
6             (32.8567 0.102139 0.236237) (16.102 -0.162018 -0.378671) (27.6552 -0.404908 -0.5531)
7             (27.4214 0.0371023 0.143354) (15.037 -0.156464 -0.327887) (23.7951 -0.215404 -0.434459)
8             (28.2453 -0.0258983 0.0203936) (14.938 -0.146538 -0.29607) (23.5392 -0.077721 -0.227941)
9             (32.6019 -0.0497413 -0.0332838) (15.8138 -0.130797 -0.27349) (26.0782 -0.10035 -0.112427)
10            (35.5119 -0.0532004 -0.0367066) (17.0087 -0.108437 -0.237888) (28.5931 -0.20457 -0.143018)
11            (34.8937 -0.0612557 -0.0106714) (18.022 -0.0800043 -0.185736) (29.5115 -0.272404 -0.239558)
12            (32.3525 -0.0784839 0.0285652) (18.7817 -0.0466877 -0.123842) (28.9328 -0.260227 -0.297849)
13            (30.5732 -0.0942098 0.0531381) (19.5578 -0.0132266 -0.0607467) (27.9587 -0.211236 -0.300663)
14            (30.6878 -0.0981293 0.0476845) (20.5701 0.0147619 -0.00867034) (27.4661 -0.172506 -0.280963)
15            (31.9086 -0.0914408 0.0227801) (21.8619 0.0332199 0.0239409) (27.8357 -0.16687 -0.28062)
16            (32.6393 -0.082865 -0.000613472) (23.3178 0.0425123 0.0412679) (28.6092 -0.1786 -0.295527)
17            (32.1795 -0.0787504 -0.00215622) (24.7233 0.0434103 0.044312) (29.2351 -0.188077 -0.309426)
18            (31.0279 -0.0782378 0.0137699) (25.8634 0.0388385 0.0382938) (29.4145 -0.17947 -0.299)
19            (30.1481 -0.0749332 0.02653) (26.7555 0.0327186 0.0318692) (29.3694 -0.161313 -0.272017)
20            (29.9656 -0.0647866 0.0224828) (27.5065 0.0267148 0.0270351) (29.4016 -0.139911 -0.247918)
21            (30.3917 -0.0496226 0.0056773) (28.1617 0.0222902 0.0251807) (29.626 -0.119039 -0.224483)
22            (30.8953 -0.0360848 -0.010659) (28.757 0.0190899 0.0246985) (30.0507 -0.11163 -0.207926)
23            (31.0351 -0.0296709 -0.015996) (29.2552 0.0161158 0.0228134) (30.4478 -0.113165 -0.202958)
24            (30.7555 -0.0296067 -0.0119959) (29.6126 0.0145256 0.0228761) (30.5773 -0.105237 -0.188806)
25            (30.3192 -0.0296714 -0.00541878) (29.8467 0.0156645 0.0299881) (30.4275 -0.0894572 -0.156836)
26            (30.0659 -0.0236177 -0.00171352) (30.0376 0.0188481 0.0418039) (30.1273 -0.076437 -0.119868)
27            (30.0789 -0.0122283 -0.003086) (30.2493 0.0217871 0.0480992) (29.7916 -0.0705406 -0.0919597)
28            (30.2306 -0.00111101 -0.00784838) (30.4784 0.0226054 0.0397943) (29.4732 -0.0702852 -0.0762804)
29            (30.3484 0.00458903 -0.0128292) (30.6964 0.0194487 0.0170507) (29.151 -0.0702451 -0.0647802)
30            (30.3442 0.00423688 -0.0160063) (30.8561 0.00980584 -0.0103549) (28.8088 -0.0650037 -0.0515874)
31            (30.2346 0.000637191 -0.0170483) (30.9072 -0.00627773 -0.0290316) (28.4768 -0.0508291 -0.0371193)
32            (30.0954 -0.00224571 -0.0158271) (30.8571 -0.0239313 -0.0335325) (28.1745 -0.0304861 -0.0233748)
33            (30.0096 -0.00217596 -0.0132269) (30.7714 -0.0366581 -0.0310367) (27.9201 -0.00874704 -0.0124878)
34            (29.9928 0.000372461 -0.0104072) (30.7121 -0.0405318 -0.0336296) (27.7334 0.0106422 -0.00429082)
35            (30.063 0.00315731 -0.00899234) (30.6861 -0.0371843 -0.0451633) (27.6263 0.0256921 0.00443635)
36            (30.1267 0.00364211 -0.00990183) (30.6547 -0.0317646 -0.056307) (27.6227 0.0352345 0.0167603)
37            (30.1594 0.00124256 -0.0118129) (30.5726 -0.028605 -0.052286) (27.7249 0.0385346 0.0329401)
38            (30.1585 -0.00275426 -0.0126899) (30.425 -0.0299222 -0.0248541) (27.8994 0.0366665 0.0477181)
39            (30.153 -0.00633905 -0.0116031) (30.2399 -0.0338527 0.0194581) (28.084 0.0315482 0.0555231)
40            (30.1326 -0.00835401 -0.00950368) (30.0693 -0.0355556 0.0629185) (28.1919 0.0252748 0.0558262)
41            (30.0887 -0.00902465 -0.00781715) (29.9591 -0.0303258 0.0872915) (28.1899 0.0191297 0.0529423)
42            (30.0671 -0.00930348 -0.00695639) (29.9318 -0.0158579 0.0837713) (28.1309 0.0125903 0.0539213)
43            (30.0869 -0.0101806 -0.00695779) (29.9632 0.0047958 0.0583722) (28.0396 0.00561868 0.0633996)
44            (30.1057 -0.0117877 -0.0072462) (30.0126 0.0255766 0.0274768) (27.9693 -0.00143362 0.0799854)
45            (30.1295 -0.0134912 -0.00691967) (30.0428 0.0399473 0.00723773) (27.9286 -0.00694685 0.0973909)
46            (30.144 -0.014825 -0.00616039) (30.0394 0.0440529 0.00510409) (27.8962 -0.00860979 0.108069)
47            (30.1349 -0.0155871 -0.00548212) (30.0103 0.0387291 0.0174821) (27.8384 -0.0056513 0.109552)
48            (30.127 -0.015748 -0.00527321) (29.9714 0.0283789 0.0339227) (27.7243 0.000382589 0.105644)
49            (30.128 -0.015563 -0.00560439) (29.9376 0.0188572 0.0441379) (27.5538 0.00634599 0.103666)
50            (30.1448 -0.0153803 -0.00619133) (29.9224 0.014801 0.0427457) (27.3444 0.00988707 0.109013)
51            (30.1677 -0.0154346 -0.00659705) (29.9316 0.01807 0.0305723) (27.1416 0.0109218 0.121611)
52            (30.1822 -0.0158094 -0.00653775) (29.9654 0.0269404 0.0122774) (26.994 0.0119419 0.135812)
53            (30.1869 -0.0163818 -0.00616271) (30.0163 0.0373608 -0.00643306) (26.9186 0.0162738 0.144291)
54            (30.1779 -0.0168365 -0.00568939) (30.0718 0.044977 -0.0213138) (26.898 0.025388 0.143234)
55            (30.1729 -0.0169209 -0.00546009) (30.1227 0.0467478 -0.0304492) (26.9015 0.0383019 0.134091)
56            (30.1712 -0.0165813 -0.00568499) (30.1613 0.0420839 -0.0336562) (26.8882 0.0518463 0.122339)
57            (30.176 -0.0159837 -0.0061874) (30.1796 0.0329758 -0.0319601) (26.8507 0.061418 0.11439)
58            (30.182 -0.0155263 -0.00673546) (30.1756 0.0227935 -0.0273546) (26.7966 0.0640593 0.113775)
59            (30.1862 -0.0155315 -0.00718301) (30.1543 0.0148202 -0.0224864) (26.7428 0.0600348 0.119575)
60            (30.1882 -0.0159962 -0.00751829) (30.1257 0.0110079 -0.0198049) (26.707 0.0527375 0.12767)
61            (30.1878 -0.0166094 -0.00780625) (30.1016 0.0114756 -0.020709) (26.703 0.0469206 0.133462)
62            (30.1868 -0.0169788 -0.00807384) (30.0908 0.0148318 -0.0251472) (26.737 0.0461875 0.134352)
63            (30.1862 -0.0169058 -0.00826583) (30.0927 0.0189508 -0.0315936) (26.8042 0.0512792 0.130691)
64            (30.1858 -0.016506 -0.00831975) (30.0993 0.0219522 -0.0377431) (26.8946 0.0597919 0.124878)
65            (30.1853 -0.0160994 -0.00823476) (30.0996 0.022926 -0.0415447) (26.9974 0.0674868 0.119656)
66            (30.1847 -0.015975 -0.00808761) (30.0864 0.0219897 -0.0420829) (27.1008 0.0705051 0.116771)
67            (30.1839 -0.0162131 -0.00798763) (30.0597 0.0198025 -0.0398192) (27.1948 0.0672173 0.116535)
68            (30.183 -0.0166713 -0.00801111) (30.0255 0.0170627 -0.0361162) (27.2761 0.0588129 0.118099)
69            (30.182 -0.0171098 -0.00815515) (29.9931 0.0142977 -0.0323665) (27.3482 0.0484485 0.119998)
70            (30.1808 -0.0173466 -0.00833532) (29.971 0.0119719 -0.0294496) (27.4195 0.0396694 0.120683)
71            (30.1793 -0.0173516 -0.00843719) (29.9651 0.0105738 -0.0277259) (27.499 0.0351334 0.118908)
72            (30.1777 -0.0172249 -0.00837947) (29.9749 0.0103974 -0.0272266) (27.591 0.0350734 0.114152)
73            (30.1765 -0.017106 -0.00817333) (29.9934 0.0112961 -0.0278919) (27.7007 0.0374859 0.107519)
74            (30.1758 -0.017096 -0.00788946) (30.0094 0.0127261 -0.0295069) (27.8225 0.0396525 0.10008)
75            (30.1756 -0.017209 -0.00762236) (30.0166 0.014151 -0.0319513) (27.9483 0.0393022 0.0931903)
76            (30.1759 -0.0173895 -0.00744319) (30.0142 0.0152608 -0.0348867) (28.0709 0.0357046 0.0877932)
77            (30.1761 -0.0175687 -0.00736655) (30.0053 0.0157817 -0.0375429) (28.1729 0.0293853 0.0843378)
78            (30.1763 -0.0176947 -0.00734041) (29.9982 0.0156094 -0.0393092) (28.2449 0.0216592 0.0830646)
79            (30.1769 -0.0177508 -0.00730336) (29.9977 0.0148016 -0.0397377) (28.2879 0.014357 0.0837269)
80            (30.1776 -0.0177521 -0.00722612) (30.0058 0.0135135 -0.0385617) (28.3141 0.00886179 0.0848825)
81            (30.1781 -0.0177331 -0.00712595) (30.0223 0.0121024 -0.0364386) (28.3431 0.00543543 0.0849616)
82            (30.1778 -0.0177256 -0.00701838) (30.0411 0.0110207 -0.0346469) (28.3846 0.00375945 0.0832719)
83            (30.1779 -0.0177411 -0.00691051) (30.0548 0.010541 -0.0341138) (28.426 0.00329485 0.0804726)
84            (30.1784 -0.0177799 -0.00682226) (30.06 0.0105474 -0.0349574) (28.4645 0.00334107 0.0771143)
85            (30.1794 -0.0178292 -0.00676616) (30.0558 0.0107818 -0.0366806) (28.495 0.00342025 0.0739399)
86            (30.1809 -0.0178744 -0.00674081) (30.0451 0.0110711 -0.0385473) (28.5117 0.00331306 0.0714404)
87            (30.183 -0.0179078 -0.00673021) (30.0327 0.011271 -0.0398406) (28.5119 0.00308221 0.0697088)
88            (30.1855 -0.0179293 -0.00671857) (30.0218 0.0112674 -0.0400833) (28.4984 0.00281787 0.0687861)
89            (30.1881 -0.0179441 -0.0066959) (30.0149 0.0110572 -0.0389751) (28.4758 0.00239027 0.0687858)
90            (30.1904 -0.0179582 -0.00666833) (30.0101 0.0106658 -0.0367373) (28.4511 0.00178081 0.0695738)
91            (30.1919 -0.0179751 -0.00664763) (30.0033 0.0102193 -0.0339967) (28.4294 0.001169 0.0708817)
92            (30.193 -0.0179946 -0.00664512) (29.9943 0.00984819 -0.0316197) (28.4154 0.000784669 0.0723143)
93            (30.1936 -0.018018 -0.00666376) (29.9828 0.00960947 -0.0300514) (28.4095 0.000787345 0.073357)
94            (30.1943 -0.0180411 -0.00669459) (29.9687 0.00940929 -0.0293289) (28.4039 0.00121692 0.0737956)
95            (30.1953 -0.0180611 -0.00672449) (29.9535 0.00919364 -0.0291659) (28.3978 0.00195213 0.0736143)
96            (30.1967 -0.0180761 -0.00674064) (29.9388 0.00895025 -0.0290629) (28.3898 0.00285808 0.0729734)
97            (30.1986 -0.018087 -0.00674015) (29.9259 0.00874733 -0.0285843) (28.3789 0.00365404 0.0721348)
98            (30.2006 -0.0180971 -0.0067309) (29.916 0.00859612 -0.0274754) (28.3665 0.0040028 0.0715588)
99            (30.2023 -0.0181093 -0.00672536) (29.9097 0.0084572 -0.0257492) (28.3549 0.0037071 0.0716385)
100           (30.2035 -0.0181249 -0.00673167) (29.9065 0.008354 -0.0236855) (28.3445 0.00278765 0.0725144)
101           (30.2043 -0.0181425 -0.00675038) (29.9052 0.00830222 -0.0216496) (28.3338 0.00151445 0.0741213)
102           (30.2048 -0.018159 -0.00677611) (29.9046 0.00825889 -0.019909) (28.321 0.000281199 0.0762576)
103           (30.2051 -0.018172 -0.00680088) (29.9035 0.00815648 -0.0185615) (28.3059 -0.000594309 0.0786346)
104           (30.2056 -0.0181817 -0.00681858) (29.9012 0.00796729 -0.0175763) (28.2896 -0.000996153 0.0809412)
105           (30.2062 -0.0181908 -0.00682752) (29.8977 0.00771707 -0.0168384) (28.2741 -0.00101322 0.0829325)
106           (30.2071 -0.0182017 -0.0068303) (29.8934 0.00745598 -0.0161864) (28.2605 -0.000850473 0.0845107)
107           (30.208 -0.018215 -0.00683152) (29.8889 0.00722098 -0.0154556) (28.2491 -0.000716392 0.0857504)
108           (30.2089 -0.0182288 -0.00683392) (29.8853 0.0070241 -0.0145344) (28.2391 -0.000743654 0.0868474)
109           (30.2097 -0.0182401 -0.00683732) (29.883 0.0068606 -0.0134029) (28.2297 -0.000963007 0.0880088)
110           (30.2105 -0.018247 -0.00684006) (29.8824 0.00672191 -0.0121372) (28.2204 -0.00132135 0.089346)
111           (30.2113 -0.0182504 -0.00684158) (29.8836 0.00660591 -0.0108773) (28.2108 -0.00172789 0.0908432)
112           (30.2119 -0.0182534 -0.00684391) (29.8861 0.00651357 -0.00976744) (28.2007 -0.0020972 0.0923992)
113           (30.2124 -0.0182597 -0.00685016) (29.8892 0.00643528 -0.00889436) (28.1902 -0.00237084 0.0938934)
114           (30.2127 -0.0182706 -0.00686108) (29.8922 0.0063581 -0.0082668) (28.1791 -0.00254566 0.0953005)
115           (30.2129 -0.0182838 -0.00687403) (29.8943 0.00627031 -0.00782974) (28.1679 -0.00266346 0.0966723)
116           (30.2132 -0.0182959 -0.00688575) (29.8953 0.00616718 -0.0074966) (28.1571 -0.00278094 0.0980738)
117           (30.2135 -0.0183038 -0.00689416) (29.8949 0.00605283 -0.00717733) (28.1469 -0.00293496 0.0995293)
118           (30.214 -0.0183072 -0.00689864) (29.8933 0.00593715 -0.00680273) (28.1371 -0.00313644 0.101007)
119           (30.2146 -0.0183078 -0.00690058) (29.8907 0.00583101 -0.00633614) (28.1279 -0.00337799 0.102446)
120           (30.2153 -0.0183083 -0.00690292) (29.8879 0.00574175 -0.00577526) (28.1194 -0.00364753 0.103791)
121           (30.2159 -0.0183102 -0.00690865) (29.8853 0.00567676 -0.00514383) (28.1121 -0.00394652 0.105021)
122           (30.2164 -0.0183135 -0.00692081) (29.8836 0.00563501 -0.00448187) (28.1059 -0.00427797 0.106069)
123           (30.2168 -0.0183179 -0.00693927) (29.8827 0.00560689 -0.00384786) (28.1002 -0.00457723 0.106934)
124           (30.217 -0.0183226 -0.00696156) (29.8823 0.00558249 -0.00327254) (28.094 -0.00479672 0.107693)
125           (30.2173 -0.0183269 -0.00698474) (29.8819 0.00555474 -0.00276769) (28.0872 -0.00493916 0.10843)
126           (30.2176 -0.0183304 -0.00700604) (29.8811 0.00551968 -0.00234105) (28.0799 -0.00503649 0.109193)
127           (30.2179 -0.0183331 -0.00702501) (29.8801 0.00547457 -0.00199759) (28.0729 -0.00512454 0.109981)
128           (30.2183 -0.0183349 -0.00704245) (29.879 0.00542049 -0.00173267) (28.0668 -0.0052269 0.110777)
129           (30.2187 -0.0183363 -0.00705959) (29.8776 0.0053602 -0.00151778) (28.0609 -0.00533182 0.111573)
130           (30.219 -0.0183382 -0.00707808) (29.876 0.00530275 -0.00131925) (28.0558 -0.00544686 0.112331)
131           (30.2193 -0.0183409 -0.00709821) (29.8743 0.00525817 -0.00110626) (28.0513 -0.00556161 0.113017)
132           (30.2195 -0.0183442 -0.00711958) (29.8726 0.00523089 -0.000859789) (28.0477 -0.00566542 0.113601)
133           (30.2196 -0.0183476 -0.0071409) (29.8709 0.00522205 -0.0005742) (28.0443 -0.00574828 0.114081)
134           (30.2197 -0.0183511 -0.00716163) (29.8693 0.00522759 -0.000253524) (28.0407 -0.00579763 0.11448)
135           (30.2198 -0.0183551 -0.00718145) (29.868 0.00523837 7.92345e-05) (28.0378 -0.00584621 0.114807)
136           (30.2199 -0.0183593 -0.00720001) (29.867 0.00524889 0.000401248) (28.035 -0.00589102 0.115098)
137           (30.2201 -0.0183633 -0.00721713) (29.8661 0.00525536 0.000693384) (28.0316 -0.00592716 0.115392)
138           (30.2203 -0.0183667 -0.00723314) (29.8651 0.00525677 0.000946051) (28.0273 -0.00595482 0.115713)
139           (30.2205 -0.0183694 -0.00724907) (29.8641 0.00525384 0.00115788) (28.0228 -0.00598552 0.11606)
140           (30.2206 -0.018372 -0.00726498) (29.863 0.00524883 0.00133239) (28.0187 -0.0060294 0.11641)
141           (30.2207 -0.018375 -0.00728057) (29.8619 0.00524423 0.00147864) (28.0151 -0.00608421 0.116739)
142           (30.2208 -0.0183787 -0.00729534) (29.861 0.00524137 0.00160741) (28.0123 -0.00614737 0.117024)
143           (30.2208 -0.0183825 -0.00730888) (29.8601 0.00524105 0.0017286) (28.0101 -0.00621194 0.117254)
144           (30.2209 -0.0183862 -0.00732178) (29.8595 0.00524464 0.00185103) (28.0084 -0.00627207 0.117432)
145           (30.2209 -0.0183896 -0.00733387) (29.8589 0.00525262 0.00197948) (28.007 -0.00632617 0.117575)
146           (30.2209 -0.018393 -0.00734422) (29.8582 0.00526761 0.0021179) (28.0045 -0.00635632 0.117725)
147           (30.221 -0.0183963 -0.00735335) (29.8572 0.00528836 0.00226661) (28.0009 -0.00635651 0.117904)
148           (30.221 -0.0184 -0.00736235) (29.8564 0.00531038 0.00240752) (27.9979 -0.00637009 0.118079)
149           (30.221 -0.0184039 -0.00737079) (29.8556 0.00533309 0.00253606) (27.9955 -0.00639476 0.11825)
150           (30.221 -0.0184075 -0.00737828) (29.8549 0.00535488 0.00264861) (27.9934 -0.00642968 0.118409)
151           (30.2209 -0.0184107 -0.00738464) (29.8543 0.00537398 0.00274253) (27.9921 -0.00647533 0.118544)
152           (30.221 -0.0184136 -0.00739017) (29.8539 0.00538937 0.00281682) (27.9914 -0.00652663 0.118651)
153           (30.221 -0.0184165 -0.00739519) (29.8536 0.00540238 0.0028741) (27.9907 -0.00656472 0.118738)
154           (30.221 -0.0184191 -0.00739924) (29.8532 0.0054156 0.00292351) (27.9892 -0.00657314 0.118827)
155           (30.221 -0.0184213 -0.0074023) (29.8527 0.00542963 0.00297446) (27.9871 -0.00656213 0.118927)
156           (30.2211 -0.0184236 -0.00740511) (29.852 0.00544517 0.00302858) (27.9851 -0.0065488 0.119032)
157           (30.2211 -0.018426 -0.00740806) (29.8513 0.00546428 0.00308479) (27.9833 -0.00653757 0.119136)
158           (30.2211 -0.0184285 -0.00741135) (29.8505 0.00548757 0.0031414) (27.9817 -0.00653285 0.119224)
159           (30.2211 -0.018431 -0.00741518) (29.8496 0.00551326 0.00319571) (27.9805 -0.00653745 0.119284)
160           (30.221 -0.0184335 -0.00741964) (29.8489 0.00553826 0.00324313) (27.9798 -0.0065455 0.119312)
161           (30.2209 -0.0184356 -0.00742425) (29.8484 0.00556063 0.00328147) (27.9789 -0.00654336 0.119322)
162           (30.2209 -0.0184372 -0.00742806) (29.8478 0.00557935 0.00331543) (27.9775 -0.00652693 0.119336)
163           (30.2208 -0.0184385 -0.00743054) (29.8473 0.00559469 0.00335006) (27.9761 -0.00650587 0.119366)
164           (30.2208 -0.0184401 -0.0074318) (29.8466 0.00560944 0.00338596) (27.9746 -0.00648334 0.119414)
165           (30.2207 -0.018442 -0.00743231) (29.8459 0.0056263 0.0034227) (27.9732 -0.0064625 0.119468)
166           (30.2207 -0.0184437 -0.00743247) (29.8451 0.00564546 0.0034582) (27.9719 -0.00644818 0.119514)
167           (30.2208 -0.0184448 -0.00743272) (29.8443 0.00566467 0.00348799) (27.9711 -0.00644167 0.119535)
168           (30.2208 -0.018445 -0.00743353) (29.8437 0.00568165 0.00350829) (27.9704 -0.00643514 0.119532)
169           (30.2209 -0.0184448 -0.00743499) (29.8432 0.00569561 0.00352237) (27.9694 -0.00641901 0.11952)
170           (30.2209 -0.0184446 -0.00743679) (29.8426 0.00570635 0.00353782) (27.9682 -0.00639514 0.119514)
171           (30.2209 -0.0184448 -0.00743863) (29.8419 0.00571533 0.00355811) (27.967 -0.00636862 0.119519)
172           (30.2209 -0.0184455 -0.0074404) (29.8412 0.00572528 0.00358418) (27.9656 -0.00634133 0.119537)
173           (30.2209 -0.0184464 -0.00744222) (29.8404 0.00573764 0.00361515) (27.9643 -0.0063174 0.11956)
174           (30.2208 -0.0184469 -0.00744434) (29.8396 0.00575137 0.0036492) (27.9631 -0.00629845 0.119579)
175           (30.2208 -0.0184472 -0.00744639) (29.839 0.0057632 0.00367922) (27.9622 -0.00628609 0.119583)
176           (30.2208 -0.0184477 -0.00744865) (29.8385 0.00577319 0.00370157) (27.9616 -0.00628006 0.119573)
177           (30.2208 -0.0184482 -0.0074508) (29.8382 0.00578053 0.00372054) (27.9609 -0.00627032 0.119556)
178           (30.2207 -0.0184483 -0.00745227) (29.8378 0.00578498 0.00374152) (27.96 -0.00625495 0.119548)
179           (30.2207 -0.0184482 -0.00745293) (29.8373 0.0057868 0.00376183) (27.9588 -0.00623047 0.11955)
180           (30.2207 -0.018448 -0.00745317) (29.8368 0.00578795 0.00378303) (27.9574 -0.00620568 0.119563)
181           (30.2206 -0.0184478 -0.00745339) (29.8362 0.0057918 0.00380878) (27.9559 -0.00617996 0.11959)
182           (30.2206 -0.0184476 -0.00745386) (29.8355 0.00579748 0.00383661) (27.9543 -0.00615616 0.119622)
183           (30.2206 -0.0184474 -0.00745458) (29.8349 0.00580292 0.00386194) (27.9529 -0.00613949 0.119643)
184           (30.2206 -0.0184475 -0.00745538) (29.8342 0.00580869 0.00388682) (27.9517 -0.00613093 0.119655)
185           (30.2206 -0.0184475 -0.00745615) (29.8337 0.00581274 0.00390814) (27.9506 -0.00612125 0.119659)
186           (30.2206 -0.0184474 -0.0074568) (29.8332 0.00581483 0.00392587) (27.9495 -0.00610967 0.119655)
187           (30.2206 -0.0184473 -0.00745715) (29.8328 0.00581527 0.00394528) (27.9485 -0.00609838 0.119653)
188           (30.2206 -0.0184472 -0.00745722) (29.8324 0.00581492 0.00396739) (27.9474 -0.00608305 0.11966)
189           (30.2206 -0.0184471 -0.00745738) (29.832 0.00581474 0.00399236) (27.9462 -0.00606252 0.119675)
190           (30.2206 -0.018447 -0.00745762) (29.8316 0.00581484 0.00401863) (27.9449 -0.00604224 0.119695)
191           (30.2206 -0.0184469 -0.0074579) (29.8311 0.00581676 0.00404944) (27.9436 -0.00602388 0.119724)
192           (30.2206 -0.0184468 -0.00745825) (29.8307 0.00582086 0.00408556) (27.942 -0.00600616 0.11976)
193           (30.2206 -0.0184467 -0.00745864) (29.8302 0.00582453 0.00411828) (27.9407 -0.00599163 0.119791)
194           (30.2206 -0.0184468 -0.00745906) (29.8298 0.00582733 0.00414679) (27.9394 -0.00598022 0.119815)
195           (30.2206 -0.018447 -0.00745964) (29.8294 0.00582937 0.00417186) (27.9381 -0.00597009 0.119834)
196           (30.2206 -0.0184473 -0.00746011) (29.8291 0.00582989 0.00419268) (27.937 -0.00596148 0.119848)
197           (30.2206 -0.0184477 -0.00746039) (29.8288 0.00582929 0.00421047) (27.9358 -0.00594908 0.119864)
198           (30.2206 -0.0184482 -0.00746049) (29.8284 0.00582804 0.00422632) (27.9344 -0.00593165 0.119881)
199           (30.2206 -0.0184487 -0.00746058) (29.8281 0.00582633 0.00424192) (27.9331 -0.00591404 0.119902)
200           (30.2206 -0.0184489 -0.00746082) (29.8277 0.00582578 0.00426052) (27.9318 -0.00589662 0.11993)
201           (30.2206 -0.0184487 -0.00746132) (29.8273 0.00582734 0.00428333) (27.9304 -0.00587967 0.119964)
202           (30.2206 -0.0184485 -0.00746182) (29.827 0.00582947 0.00430648) (27.9292 -0.00586467 0.119995)
203           (30.2206 -0.0184484 -0.00746228) (29.8267 0.0058312 0.00432875) (27.9284 -0.00585616 0.120019)
204           (30.2206 -0.0184486 -0.0074628) (29.8265 0.0058326 0.00434995) (27.9279 -0.00585446 0.120034)
205           (30.2206 -0.0184487 -0.00746329) (29.8263 0.00583339 0.00436929) (27.9274 -0.00585212 0.120044)
206           (30.2206 -0.0184489 -0.00746374) (29.8262 0.0058331 0.00438653) (27.9266 -0.00584117 0.120055)
207           (30.2206 -0.0184491 -0.00746413) (29.8261 0.0058316 0.00440181) (27.9254 -0.00581854 0.120072)
208           (30.2206 -0.0184494 -0.00746423) (29.826 0.00582979 0.00441706) (27.9243 -0.00579896 0.120095)
209           (30.2206 -0.01845 -0.00746393) (29.8258 0.00582956 0.00443692) (27.9232 -0.00578107 0.120128)
210           (30.2206 -0.018451 -0.00746327) (29.8255 0.00583169 0.00446176) (27.9219 -0.00576218 0.12017)
211           (30.2206 -0.0184518 -0.00746268) (29.8252 0.00583407 0.00448449) (27.9207 -0.00574454 0.120209)
212           (30.2206 -0.0184525 -0.00746209) (29.8249 0.00583644 0.00450539) (27.9196 -0.00573196 0.120241)
213           (30.2206 -0.018453 -0.00746149) (29.8248 0.00583821 0.00452395) (27.9189 -0.00572665 0.120258)
214           (30.2206 -0.0184535 -0.00746086) (29.8247 0.00583953 0.0045398) (27.9186 -0.00572832 0.12026)
215           (30.2206 -0.018454 -0.00746042) (29.8246 0.00583988 0.00455324) (27.9183 -0.00572918 0.120257)
216           (30.2206 -0.0184545 -0.00746037) (29.8246 0.0058385 0.00456348) (27.9181 -0.00572755 0.120252)
217           (30.2206 -0.0184549 -0.00746041) (29.8247 0.00583566 0.00457115) (27.9175 -0.00571616 0.120256)
218           (30.2206 -0.0184555 -0.0074603) (29.8248 0.00583193 0.00457677) (27.9166 -0.00569197 0.120274)
219           (30.2206 -0.018456 -0.00746025) (29.8248 0.0058287 0.00458433) (27.9158 -0.00567023 0.120301)
220           (30.2206 -0.0184564 -0.00746022) (29.8247 0.00582782 0.00459864) (27.9149 -0.00565259 0.120339)
221           (30.2206 -0.0184564 -0.00746021) (29.8245 0.00583 0.00461907) (27.9139 -0.00563663 0.120385)
222           (30.2206 -0.0184567 -0.00746016) (29.8243 0.00583298 0.00463679) (27.9131 -0.00562229 0.120423)
223           (30.2206 -0.0184572 -0.00746024) (29.8241 0.00583625 0.00465191) (27.9123 -0.00561436 0.120449)
224           (30.2206 -0.0184577 -0.00746047) (29.824 0.00583892 0.00466463) (27.9119 -0.00561376 0.120462)
225           (30.2206 -0.0184583 -0.0074607) (29.824 0.0058404 0.00467454) (27.9116 -0.00561743 0.120462)
226           (30.2206 -0.0184591 -0.00746079) (29.824 0.00584048 0.00468134) (27.9116 -0.00562098 0.120454)
227           (30.2206 -0.01846 -0.00746084) (29.824 0.00583922 0.0046853) (27.9116 -0.00562131 0.120444)
228           (30.2207 -0.0184606 -0.00746095) (29.8241 0.0058369 0.0046875) (27.9116 -0.0056169 0.120436)
229           (30.2207 -0.0184608 -0.00746101) (29.8243 0.00583411 0.0046893) (27.9116 -0.0056077 0.120437)
230           (30.2207 -0.0184609 -0.00746109) (29.8244 0.00583165 0.00469193) (27.9113 -0.00559449 0.120449)
231           (30.2207 -0.0184609 -0.00746145) (29.8245 0.00583027 0.00469632) (27.9109 -0.0055787 0.120472)
232           (30.2207 -0.0184609 -0.00746201) (29.8245 0.00583009 0.00470278) (27.9102 -0.00556282 0.120503)
233           (30.2207 -0.018461 -0.00746243) (29.8244 0.00583075 0.00471044) (27.9096 -0.00554993 0.120537)
234           (30.2207 -0.0184612 -0.00746253) (29.8244 0.00583192 0.0047183) (27.9091 -0.00554107 0.120567)
235           (30.2207 -0.0184614 -0.00746239) (29.8243 0.00583337 0.00472611) (27.9087 -0.00553608 0.120589)
236           (30.2207 -0.0184613 -0.00746211) (29.8243 0.00583481 0.00473397) (27.9085 -0.00553428 0.120601)
237           (30.2207 -0.0184613 -0.00746179) (29.8242 0.00583601 0.00474182) (27.9083 -0.0055345 0.120603)
238           (30.2207 -0.0184612 -0.00746161) (29.8242 0.00583682 0.00474936) (27.9082 -0.00553521 0.120597)
239           (30.2207 -0.0184612 -0.00746164) (29.8242 0.00583721 0.00475625) (27.9081 -0.00553489 0.120589)
240           (30.2207 -0.0184614 -0.00746182) (29.8242 0.00583716 0.00476232) (27.9079 -0.00553255 0.120581)
241           (30.2207 -0.0184617 -0.00746205) (29.8242 0.00583676 0.00476764) (27.9078 -0.00552782 0.120577)
242           (30.2207 -0.0184621 -0.00746232) (29.8242 0.00583613 0.00477242) (27.9076 -0.00552104 0.12058)
243           (30.2207 -0.0184624 -0.00746264) (29.8243 0.00583545 0.00477688) (27.9074 -0.00551302 0.120589)
244           (30.2207 -0.0184629 -0.00746291) (29.8243 0.00583492 0.00478118) (27.9072 -0.00550486 0.120602)
245           (30.2207 -0.0184633 -0.007463) (29.8243 0.00583467 0.00478533) (27.907 -0.00549769 0.120618)
246           (30.2207 -0.0184636 -0.00746289) (29.8244 0.00583473 0.00478916) (27.9069 -0.00549233 0.120632)
247           (30.2207 -0.0184639 -0.00746263) (29.8244 0.00583502 0.00479246) (27.9069 -0.00548917 0.120642)
248           (30.2207 -0.0184641 -0.00746235) (29.8245 0.00583529 0.00479512) (27.9069 -0.00548798 0.120647)
249           (30.2207 -0.0184643 -0.00746224) (29.8245 0.00583532 0.00479722) (27.9069 -0.00548802 0.120647)
250           (30.2207 -0.0184646 -0.0074623) (29.8245 0.00583507 0.00479907) (27.9068 -0.00548825 0.120643)
251           (30.2208 -0.0184651 -0.00746248) (29.8246 0.00583465 0.00480093) (27.9067 -0.00548767 0.120639)
252           (30.2208 -0.0184657 -0.00746272) (29.8246 0.00583428 0.004803) (27.9066 -0.00548558 0.120635)
253           (30.2208 -0.0184664 -0.00746296) (29.8246 0.00583415 0.00480534) (27.9065 -0.00548173 0.120635)
254           (30.2208 -0.018467 -0.00746317) (29.8247 0.00583438 0.00480792) (27.9064 -0.00547638 0.120638)
255           (30.2208 -0.0184674 -0.00746327) (29.8247 0.00583491 0.00481063) (27.9062 -0.0054702 0.120645)
256           (30.2208 -0.0184677 -0.00746316) (29.8247 0.00583558 0.00481333) (27.906 -0.00546402 0.120654)
257           (30.2208 -0.018468 -0.00746283) (29.8247 0.00583622 0.0048159) (27.9059 -0.00545859 0.120664)
258           (30.2208 -0.0184683 -0.00746234) (29.8247 0.0058367 0.00481828) (27.9057 -0.00545436 0.120673)
259           (30.2208 -0.0184687 -0.00746183) (29.8247 0.00583702 0.00482046) (27.9056 -0.00545145 0.12068)
260           (30.2208 -0.0184691 -0.00746142) (29.8247 0.00583729 0.00482249) (27.9055 -0.00544968 0.120684)
261           (30.2208 -0.0184696 -0.00746119) (29.8246 0.00583766 0.00482447) (27.9054 -0.00544871 0.120685)
262           (30.2208 -0.01847 -0.0074612) (29.8246 0.00583825 0.00482651) (27.9054 -0.00544819 0.120684)
263           (30.2208 -0.0184704 -0.00746138) (29.8246 0.00583906 0.00482864) (27.9053 -0.00544781 0.120681)
264           (30.2208 -0.0184708 -0.00746158) (29.8246 0.00583999 0.00483079) (27.9053 -0.00544735 0.120678)
265           (30.2208 -0.018471 -0.00746169) (29.8246 0.00584094 0.00483286) (27.9053 -0.00544669 0.120674)
266           (30.2208 -0.0184712 -0.0074617) (29.8246 0.00584177 0.00483475) (27.9052 -0.00544579 0.120672)
267           (30.2208 -0.0184713 -0.00746158) (29.8246 0.00584241 0.00483641) (27.9052 -0.00544468 0.120671)
268           (30.2208 -0.0184715 -0.0074613) (29.8246 0.00584283 0.00483783) (27.9052 -0.0054434 0.120671)
269           (30.2208 -0.0184717 -0.00746089) (29.8246 0.00584301 0.00483904) (27.9052 -0.00544204 0.120672)
270           (30.2208 -0.018472 -0.00746048) (29.8246 0.00584296 0.00484016) (27.9052 -0.0054407 0.120674)
271           (30.2208 -0.0184724 -0.00746015) (29.8246 0.00584278 0.00484116) (27.9052 -0.00543946 0.120675)
272           (30.2208 -0.0184727 -0.00745993) (29.8247 0.00584263 0.00484196) (27.9052 -0.00543835 0.120676)
273           (30.2208 -0.018473 -0.00745981) (29.8247 0.00584263 0.00484245) (27.9052 -0.00543731 0.120676)
274           (30.2208 -0.0184734 -0.0074598) (29.8247 0.00584278 0.00484268) (27.9052 -0.00543619 0.120676)
275           (30.2208 -0.0184738 -0.00745984) (29.8247 0.00584296 0.00484278) (27.9052 -0.00543485 0.120675)