# Probe 0 (3 1.5 2.5)
# Probe 1 (4.99 1.5 3.05)
# Probe 2 (5.7 1.5 2.5)
# Time        0             1             2            
0             (0 0 0)       (0 0 0)       (0 0 0)      
1             (8.33629 0.0783611 -0.0340498) (-0.00629014 -0.000948372 -0.166922) (6.33908 -0.0459008 -0.151131)
2             (14.6566 0.031527 -0.217728) (0.609313 0.100206 -17.0861) (10.6203 -0.0512999 -0.1311)
3             (30.9366 -0.0331143 -0.462283) (-1.97251 0.203631 -11.2521) (23.2194 -0.108449 -0.255112)
4             (41.3458 0.0173665 -0.547421) (9.26032 0.172238 -13.9625) (31.8464 -0.130424 -0.215399)
5             (41.0555 0.0972546 -0.550292) (10.638 0.141182 -16.2546) (32.9168 -0.132789 -0.164875)
6             (34.0855 0.117158 -0.394037) (6.17519 0.119177 -17.3902) (29.5123 -0.140635 -0.256901)
7             (28.117 0.065969 -0.143295) (2.46083 0.0792708 -17.8903) (26.5263 -0.156715 -0.384966)
8             (27.3879 0.00524173 0.077756) (1.03196 0.0464761 -18.2728) (26.623 -0.176201 -0.406475)
9             (30.7789 -0.0208706 0.204053) (1.37226 0.0368577 -18.6733) (28.8516 -0.193151 -0.314459)
10            (34.4553 -0.0277628 0.245522) (2.48951 0.0504431 -18.9792) (30.8448 -0.202176 -0.200782)
11            (35.6502 -0.0425763 0.26023) (3.69021 0.0791028 -19.0127) (31.3406 -0.204223 -0.14799)
12            (34.3762 -0.068904 0.28036) (4.60277 0.114833 -18.5198) (30.746 -0.205845 -0.180821)
13            (32.428 -0.0955572 0.275762) (5.23319 0.148835 -17.1407) (30.0435 -0.208779 -0.269625)
14            (31.3702 -0.111725 0.225438) (5.89376 0.152041 -14.4444) (29.928 -0.210587 -0.368188)
15            (31.5487 -0.116009 0.149476) (6.46122 0.104419 -10.4156) (30.337 -0.208815 -0.433641)
16            (32.1962 -0.114288 0.0829733) (6.0057 0.0685548 -6.74646) (30.7604 -0.203261 -0.446126)
17            (32.44 -0.11198 0.0375995) (4.70869 0.0698425 -4.05023) (30.8267 -0.194115 -0.422634)
18            (32.0255 -0.109565 0.0225469) (3.39411 0.0827253 -1.88546) (30.5881 -0.18039 -0.397914)
19            (31.3501 -0.104649 0.035325) (2.77493 0.0843636 -0.112933) (30.3388 -0.160502 -0.394668)
20            (30.8606 -0.0962415 0.0563126) (2.78434 0.070642 1.44768) (30.3354 -0.135748 -0.407021)
21            (30.7711 -0.0848917 0.0604) (2.93457 0.0450158 2.87769) (30.6171 -0.110447 -0.409411)
22            (30.9233 -0.0724425 0.0425052) (3.00529 0.0114054 4.1672) (31.0067 -0.0888261 -0.379331)
23            (31.0335 -0.0619975 0.0130988) (2.87126 -0.0263829 5.32287) (31.2944 -0.0726176 -0.318165)
24            (30.9391 -0.0550994 -0.0113065) (2.57851 -0.0607783 6.44009) (31.3859 -0.0613592 -0.245801)
25            (30.706 -0.0505807 -0.0190355) (2.22239 -0.0832283 7.57571) (31.3229 -0.0540378 -0.186228)
26            (30.4772 -0.0459914 -0.0133281) (1.88305 -0.0861939 8.72771) (31.1871 -0.049292 -0.152525)
27            (30.3396 -0.0392136 -0.00699961) (1.58539 -0.0636206 9.83218) (31.0265 -0.0458478 -0.142049)
28            (30.3056 -0.0296912 -0.0101992) (1.30554 -0.0127435 10.7694) (30.8364 -0.0416589 -0.146947)
29            (30.3203 -0.0189023 -0.0215241) (1.0303 0.0629229 11.4071) (30.6056 -0.0344808 -0.157418)
30            (30.3454 -0.00920697 -0.0326693) (0.827134 0.152935 11.6566) (30.3387 -0.022962 -0.163747)
31            (30.3465 -0.00234182 -0.0372328) (0.775999 0.243337 11.5013) (30.0543 -0.00676819 -0.159075)
32            (30.3163 0.00156247 -0.034255) (0.954977 0.319772 11.0003) (29.8177 0.0123053 -0.14167)
33            (30.2696 0.00364524 -0.0282066) (1.40679 0.368404 10.2456) (29.6755 0.0310583 -0.110736)
34            (30.2148 0.00508457 -0.0247727) (2.00394 0.371082 9.35097) (29.6383 0.0462548 -0.0683782)
35            (30.1656 0.00638986 -0.0267493) (2.40625 0.307754 8.50157) (29.7056 0.0558407 -0.019492)
36            (30.1321 0.0072333 -0.0329755) (2.27232 0.16594 7.93835) (29.8656 0.0593618 0.0301319)
37            (30.1171 0.00700015 -0.0398272) (1.51746 -0.0600067 7.83122) (30.1034 0.0573925 0.0745859)
38            (30.1214 0.00541333 -0.0440561) (0.338485 -0.393648 8.20526) (30.3794 0.0508398 0.109148)
39            (30.1327 0.00273187 -0.0443398) (-0.95229 -0.893038 8.93612) (30.6328 0.0401584 0.13118)
40            (30.1389 -0.000359656 -0.0409846) (-2.02739 -1.62458 9.71141) (30.8123 0.0249401 0.138628)
41            (30.1394 -0.00319706 -0.035581) (-2.52273 -2.62139 9.98957) (30.872 0.00515259 0.131439)
42            (30.1319 -0.00550108 -0.0301184) (-2.15179 -3.83707 9.38166) (30.8049 -0.0180115 0.111443)
43            (30.1192 -0.00734286 -0.0256633) (-1.23347 -5.05211 7.87958) (30.6179 -0.0407662 0.0825767)
44            (30.1102 -0.00888181 -0.0230221) (-0.0777435 -5.6928 5.97072) (30.4067 -0.0582059 0.0571737)
45            (30.1105 -0.0102896 -0.021265) (0.438313 -5.41421 3.92904) (30.2854 -0.0676386 0.036418)
46            (30.1184 -0.0116983 -0.0200449) (0.482996 -4.54263 2.56649) (30.1408 -0.0690768 0.026738)
47            (30.1292 -0.0130908 -0.0198515) (-0.217097 -3.40686 2.44115) (30.0138 -0.0626452 0.0282909)
48            (30.1409 -0.0143532 -0.0200181) (-0.791073 -2.33379 3.41361) (29.8635 -0.0513998 0.0361439)
49            (30.1505 -0.0154129 -0.019922) (-1.08084 -1.57383 4.66365) (29.6583 -0.0417559 0.0504346)
50            (30.1562 -0.0161278 -0.0195304) (-1.45379 -1.19823 5.90526) (29.4142 -0.0375636 0.0704694)
51            (30.1578 -0.016842 -0.01902) (-1.87645 -1.20308 6.69872) (29.1764 -0.0309986 0.0954385)
52            (30.1554 -0.0172744 -0.0185467) (-1.93128 -1.50239 6.88752) (28.9869 -0.0215829 0.124517)
53            (30.1505 -0.0175742 -0.0180992) (-1.14059 -2.06557 6.33556) (28.8694 -0.00860225 0.15303)
54            (30.1462 -0.0177325 -0.0176185) (0.270635 -2.56136 4.85396) (28.8197 0.00714107 0.173449)
55            (30.1448 -0.0177573 -0.0170859) (1.24793 -2.63171 2.87344) (28.8158 0.0232666 0.177876)
56            (30.1461 -0.0176823 -0.0168029) (1.16523 -2.26715 1.70151) (28.8318 0.0368379 0.16529)
57            (30.1495 -0.0175638 -0.0166984) (0.40228 -1.76986 1.76723) (28.8546 0.0449262 0.14377)
58            (30.1524 -0.0174375 -0.0168391) (-0.10147 -1.25223 2.75753) (28.8452 0.0467296 0.11897)
59            (30.1546 -0.017332 -0.0171571) (-0.252681 -0.803477 4.00723) (28.827 0.0443361 0.103071)
60            (30.156 -0.0172633 -0.0176561) (-0.390145 -0.506866 5.30612) (28.8188 0.0403947 0.0899486)
61            (30.1558 -0.0172365 -0.0180359) (-0.549179 -0.336989 6.2763) (28.8238 0.0372955 0.0814621)
62            (30.1549 -0.0172477 -0.0184242) (-0.690449 -0.261333 6.8909) (28.8471 0.0370987 0.0723451)
63            (30.1549 -0.0173199 -0.0186802) (-0.610574 -0.24508 6.99606) (28.9134 0.038677 0.0586241)
64            (30.1553 -0.0173813 -0.0188144) (-0.3552 -0.280326 6.70248) (29.0094 0.0427329 0.0424156)
65            (30.1564 -0.0174825 -0.0189236) (-0.0476758 -0.356546 6.23681) (29.1232 0.0456815 0.0241268)
66            (30.1574 -0.0175998 -0.019094) (0.143232 -0.447825 5.84053) (29.2418 0.0450194 0.00655277)
67            (30.1578 -0.0177302 -0.0193631) (0.153344 -0.526303 5.6704) (29.351 0.0398962 -0.00791017)
68            (30.1572 -0.0178725 -0.0197221) (0.0475972 -0.572432 5.77144) (29.4458 0.0312345 -0.0186997)
69            (30.1557 -0.018022 -0.0201344) (-0.0545183 -0.578447 6.10199) (29.5333 0.0213519 -0.0278347)
70            (30.154 -0.0181671 -0.0205467) (-0.081117 -0.545299 6.57463) (29.619 0.0127598 -0.0378663)
71            (30.1519 -0.0182939 -0.0209239) (-0.0147616 -0.477651 7.08622) (29.7154 0.00732549 -0.0501912)
72            (30.1507 -0.0183903 -0.0212661) (0.089521 -0.389579 7.54725) (29.8148 0.0061099 -0.0646495)
73            (30.1501 -0.0185052 -0.0215695) (0.200627 -0.281728 7.89959) (29.9116 0.00588796 -0.0783779)
74            (30.1498 -0.0186348 -0.0218822) (0.303731 -0.15952 8.12018) (29.9999 0.00429566 -0.0885964)
75            (30.1497 -0.0187101 -0.0222612) (0.406872 -0.0469375 8.21492) (30.0765 0.00195436 -0.0940985)
76            (30.1496 -0.0187393 -0.0226981) (0.506789 0.0470544 8.2093) (30.1355 -0.00129885 -0.0953244)
77            (30.1491 -0.0187586 -0.02313) (0.59773 0.117016 8.13663) (30.1799 -0.00571689 -0.0929499)
78            (30.1486 -0.0187899 -0.0234997) (0.671258 0.161994 8.03043) (30.2119 -0.0107999 -0.0884236)
79            (30.1486 -0.0188284 -0.0237909) (0.722656 0.18454 7.92218) (30.2329 -0.0154625 -0.083624)
80            (30.149 -0.0188575 -0.0240236) (0.753139 0.189252 7.83734) (30.2441 -0.0186936 -0.0800227)
81            (30.1499 -0.018868 -0.0242264) (0.767152 0.181203 7.79215) (30.248 -0.0200308 -0.0784752)
82            (30.1511 -0.018865 -0.0244138) (0.770723 0.165094 7.79102) (30.2458 -0.0195856 -0.0794271)
83            (30.1523 -0.0188597 -0.0245841) (0.768473 0.145272 7.82722) (30.2385 -0.0179474 -0.0830054)
84            (30.1535 -0.0188601 -0.0247306) (0.763855 0.12565 7.886) (30.227 -0.0159295 -0.0886647)
85            (30.1548 -0.018867 -0.0248483) (0.759851 0.109365 7.94948) (30.2122 -0.0142758 -0.0949978)
86            (30.156 -0.0188755 -0.0249391) (0.759278 0.0985265 8.00086) (30.1956 -0.0134444 -0.100174)
87            (30.1574 -0.0188788 -0.0250008) (0.76404 0.0941581 8.02749) (30.1777 -0.013492 -0.101863)
88            (30.1587 -0.0188764 -0.0250496) (0.775131 0.0960772 8.02556) (30.1589 -0.0141592 -0.101859)
89            (30.1602 -0.0188752 -0.0250832) (0.792786 0.102996 7.99316) (30.1393 -0.0149294 -0.0997102)
90            (30.1614 -0.0188768 -0.025109) (0.813407 0.113147 7.9401) (30.1211 -0.0153729 -0.0963148)
91            (30.1626 -0.0188792 -0.0251333) (0.836648 0.124014 7.87118) (30.103 -0.0152011 -0.0936884)
92            (30.1639 -0.0188825 -0.0251581) (0.858684 0.134649 7.79658) (30.0852 -0.0144411 -0.0925102)
93            (30.1651 -0.0188855 -0.0251842) (0.876101 0.143484 7.72591) (30.0673 -0.013232 -0.0920574)
94            (30.1662 -0.0188875 -0.0252114) (0.886841 0.149483 7.66667) (30.0489 -0.0118469 -0.091139)
95            (30.1673 -0.0188883 -0.0252381) (0.890803 0.152294 7.62341) (30.0298 -0.0105763 -0.0888094)
96            (30.1684 -0.0188885 -0.0252625) (0.889339 0.152164 7.59734) (30.0103 -0.00960628 -0.0846357)
97            (30.1694 -0.0188884 -0.0252842) (0.88464 0.149701 7.58645) (29.9906 -0.00897845 -0.0787772)
98            (30.1704 -0.0188885 -0.0253051) (0.879044 0.145682 7.58612) (29.9711 -0.00863241 -0.0718342)
99            (30.1714 -0.0188889 -0.025327) (0.874617 0.140931 7.59026) (29.9518 -0.00846338 -0.0645513)
100           (30.1724 -0.0188896 -0.0253513) (0.872905 0.13625 7.59258) (29.933 -0.00836037 -0.0575612)
101           (30.1734 -0.0188904 -0.0253777) (0.874782 0.132321 7.58785) (29.9145 -0.00822751 -0.0512226)
102           (30.1743 -0.0188915 -0.0254052) (0.880395 0.129602 7.57266) (29.8959 -0.00800294 -0.0455275)
103           (30.1752 -0.018893 -0.0254328) (0.889105 0.128277 7.54573) (29.8772 -0.0076668 -0.0402076)
104           (30.176 -0.0188951 -0.0254598) (0.899678 0.12825 7.50776) (29.8584 -0.00723822 -0.0348921)
105           (30.1769 -0.018898 -0.0254861) (0.910561 0.129225 7.46109) (29.8396 -0.00676078 -0.0292945)
106           (30.1777 -0.0189017 -0.0255122) (0.920263 0.130796 7.40907) (29.8212 -0.00628506 -0.0233178)
107           (30.1785 -0.0189064 -0.0255378) (0.927628 0.132522 7.35543) (29.8031 -0.00585427 -0.0170338)
108           (30.1792 -0.0189121 -0.0255627) (0.932035 0.133983 7.30372) (29.7853 -0.00549359 -0.0106447)
109           (30.1799 -0.0189184 -0.0255865) (0.933423 0.134838 7.2568) (29.7679 -0.00521177 -0.00441869)
110           (30.1806 -0.0189255 -0.0256091) (0.932175 0.134862 7.21651) (29.7515 -0.00500249 0.00140812)
111           (30.1813 -0.018933 -0.0256296) (0.928953 0.13397 7.18354) (29.7361 -0.00484595 0.00668889)
112           (30.1819 -0.0189409 -0.0256476) (0.92456 0.132205 7.15751) (29.7217 -0.00471896 0.0113665)
113           (30.1825 -0.0189488 -0.0256636) (0.919807 0.129722 7.13725) (29.7082 -0.00460597 0.0154386)
114           (30.1831 -0.0189568 -0.0256784) (0.915408 0.12674 7.1212) (29.6953 -0.00450132 0.0189273)
115           (30.1836 -0.0189645 -0.0256924) (0.911879 0.123504 7.10769) (29.6828 -0.00440741 0.0218732)
116           (30.1841 -0.0189717 -0.0257059) (0.909468 0.120245 7.09523) (29.6708 -0.00433092 0.0243374)
117           (30.1847 -0.0189799 -0.0257183) (0.908097 0.116897 7.08259) (29.6585 -0.0042523 0.0264538)
118           (30.1853 -0.0189866 -0.0257294) (0.907548 0.113921 7.069) (29.6464 -0.00416103 0.028335)
119           (30.1859 -0.0189918 -0.0257447) (0.907683 0.111355 7.05307) (29.635 -0.00409475 0.0301731)
120           (30.1864 -0.0189958 -0.0257627) (0.908376 0.109164 7.03664) (29.6247 -0.00409734 0.0318572)
121           (30.187 -0.0189987 -0.0257836) (0.909264 0.10728 7.0203) (29.6152 -0.0041414 0.0334288)
122           (30.1875 -0.0190005 -0.0258025) (0.909861 0.105626 7.00584) (29.6064 -0.00417487 0.0348428)
123           (30.188 -0.0190007 -0.0258294) (0.90986 0.104131 6.99133) (29.5979 -0.00417259 0.0362814)
124           (30.1885 -0.0189993 -0.0258595) (0.909301 0.102732 6.97891) (29.5898 -0.00415534 0.0377152)
125           (30.189 -0.0189967 -0.0258842) (0.90835 0.101393 6.9695) (29.5822 -0.00414524 0.0389905)
126           (30.1895 -0.0189936 -0.0259104) (0.907218 0.100106 6.96196) (29.5751 -0.00415465 0.0401501)
127           (30.19 -0.0189892 -0.0259461) (0.90611 0.098877 6.95575) (29.5684 -0.00418564 0.0414018)
128           (30.1904 -0.0189836 -0.0259819) (0.905157 0.097724 6.95122) (29.5622 -0.00422543 0.0426352)
129           (30.1908 -0.0189771 -0.0260154) (0.904418 0.0966714 6.94781) (29.5565 -0.00426441 0.0437602)
130           (30.1912 -0.0189702 -0.0260475) (0.903948 0.0957421 6.94495) (29.5512 -0.00430056 0.0447447)
131           (30.1916 -0.018963 -0.0260783) (0.903803 0.0949495 6.94216) (29.5461 -0.00433418 0.0456019)
132           (30.192 -0.0189557 -0.0261068) (0.904011 0.0943039 6.9391) (29.5413 -0.00436894 0.046365)
133           (30.1923 -0.0189485 -0.026131) (0.90455 0.093804 6.93557) (29.5368 -0.00440487 0.0470436)
134           (30.1926 -0.0189418 -0.0261499) (0.905307 0.0934344 6.93152) (29.5327 -0.00443817 0.0476785)
135           (30.1929 -0.0189355 -0.0261622) (0.906163 0.0931728 6.92696) (29.5289 -0.00446714 0.0482867)
136           (30.1932 -0.0189297 -0.0261684) (0.907022 0.092993 6.92205) (29.5253 -0.00449158 0.0488598)
137           (30.1934 -0.0189246 -0.0261705) (0.907844 0.0928674 6.91695) (29.5218 -0.00451461 0.0493799)
138           (30.1937 -0.0189202 -0.0261692) (0.908587 0.092769 6.91184) (29.5185 -0.0045397 0.0498479)
139           (30.1939 -0.0189159 -0.0261635) (0.909091 0.0926844 6.90689) (29.515 -0.00456294 0.0502518)
140           (30.1941 -0.0189122 -0.0261536) (0.909488 0.0925918 6.90216) (29.512 -0.00458912 0.0505957)
141           (30.1943 -0.0189091 -0.0261392) (0.909729 0.0924841 6.89771) (29.509 -0.00461553 0.0508887)
142           (30.1946 -0.0189072 -0.0261224) (0.909825 0.0923584 6.89356) (29.5059 -0.00463885 0.0511254)
143           (30.1947 -0.0189067 -0.0261049) (0.909823 0.0922128 6.88967) (29.5032 -0.00465968 0.0513067)
144           (30.1949 -0.0189069 -0.0260861) (0.909775 0.0920471 6.88595) (29.5009 -0.00468075 0.0514483)
145           (30.195 -0.018908 -0.0260663) (0.909753 0.0918622 6.88229) (29.4991 -0.00470431 0.0515643)
146           (30.1951 -0.0189094 -0.0260442) (0.909778 0.0916582 6.87859) (29.4973 -0.00473089 0.0516955)
147           (30.1953 -0.0189109 -0.0260196) (0.909762 0.0914412 6.87479) (29.4954 -0.00475715 0.0518222)
148           (30.1954 -0.0189143 -0.0259993) (0.909827 0.0912094 6.87082) (29.494 -0.0047855 0.0519557)
149           (30.1955 -0.0189183 -0.0259798) (0.909905 0.0909641 6.86667) (29.4926 -0.00481307 0.0520997)
150           (30.1956 -0.0189218 -0.0259576) (0.909964 0.0907055 6.86237) (29.4908 -0.00483607 0.0522478)
151           (30.1958 -0.0189255 -0.0259354) (0.909988 0.090433 6.85799) (29.4887 -0.00485185 0.0523912)
152           (30.1959 -0.0189303 -0.0259156) (0.909982 0.0901439 6.8536) (29.4866 -0.00486172 0.0525285)
153           (30.196 -0.0189355 -0.0258957) (0.909957 0.0898338 6.84921) (29.4849 -0.00487031 0.0526634)
154           (30.196 -0.0189404 -0.025874) (0.909917 0.0894976 6.84486) (29.4835 -0.00488244 0.0527964)
155           (30.1961 -0.0189455 -0.0258517) (0.909869 0.089131 6.84055) (29.4824 -0.00489965 0.0529319)
156           (30.1962 -0.0189509 -0.0258285) (0.909809 0.0887343 6.83636) (29.4814 -0.00491911 0.0530715)
157           (30.1963 -0.0189561 -0.0258043) (0.909719 0.0883111 6.83237) (29.4804 -0.00493671 0.0532044)
158           (30.1964 -0.0189615 -0.025781) (0.909585 0.0878651 6.82866) (29.4794 -0.00495008 0.0533167)
159           (30.1964 -0.0189668 -0.0257575) (0.909416 0.0873976 6.82528) (29.4785 -0.00495929 0.0534045)
160           (30.1965 -0.0189716 -0.0257322) (0.909229 0.0869083 6.82224) (29.4777 -0.00496586 0.0534755)
161           (30.1965 -0.0189761 -0.0257052) (0.909048 0.0863982 6.81956) (29.477 -0.00497107 0.0535448)
162           (30.1966 -0.018981 -0.0256783) (0.908884 0.0858714 6.81729) (29.4765 -0.00497511 0.053622)
163           (30.1966 -0.0189855 -0.02565) (0.90874 0.0853341 6.81545) (29.476 -0.00497748 0.0537032)
164           (30.1966 -0.0189891 -0.0256223) (0.908687 0.0848024 6.81403) (29.4757 -0.00497674 0.0537749)
165           (30.1967 -0.0189926 -0.0255945) (0.908714 0.0842826 6.81303) (29.4757 -0.00497502 0.0538329)
166           (30.1967 -0.0189964 -0.0255631) (0.908513 0.0837521 6.81249) (29.4755 -0.00497301 0.0538657)
167           (30.1967 -0.0189997 -0.0255321) (0.908379 0.0832379 6.8123) (29.4754 -0.00496608 0.0538748)
168           (30.1967 -0.0190024 -0.0255009) (0.90849 0.0827534 6.81246) (29.4753 -0.00495567 0.053889)
169           (30.1967 -0.0190048 -0.025469) (0.908525 0.0822915 6.81302) (29.4752 -0.00494085 0.0538939)
170           (30.1968 -0.0190073 -0.025439) (0.908734 0.0818567 6.81391) (29.4752 -0.00492467 0.0539051)
171           (30.1968 -0.0190099 -0.025409) (0.9087 0.0814549 6.81515) (29.4752 -0.00490721 0.053916)
172           (30.1968 -0.0190124 -0.0253796) (0.908893 0.0810879 6.81664) (29.4753 -0.00488939 0.0539341)
173           (30.1968 -0.0190145 -0.0253495) (0.908951 0.0807644 6.81836) (29.4754 -0.00487038 0.0539486)
174           (30.1968 -0.0190165 -0.0253201) (0.909348 0.080479 6.82022) (29.4756 -0.00485058 0.0539662)
175           (30.1968 -0.0190185 -0.0252903) (0.909593 0.0802337 6.82225) (29.4757 -0.00482933 0.0539758)
176           (30.1968 -0.0190203 -0.0252609) (0.910121 0.0800229 6.82436) (29.4759 -0.00480695 0.0539885)
177           (30.1968 -0.0190217 -0.0252303) (0.910344 0.0798554 6.82661) (29.476 -0.00478319 0.0539947)
178           (30.1968 -0.0190231 -0.0252018) (0.910809 0.0797228 6.82887) (29.4762 -0.00475892 0.0540112)
179           (30.1968 -0.0190245 -0.0251754) (0.91101 0.0796371 6.8312) (29.4762 -0.00473384 0.0540288)
180           (30.1968 -0.0190257 -0.0251526) (0.911681 0.0795776 6.83337) (29.4764 -0.00470919 0.0540537)
181           (30.1968 -0.019027 -0.025131) (0.912287 0.0795392 6.83561) (29.4765 -0.00468605 0.054095)
182           (30.1968 -0.0190281 -0.0251091) (0.912433 0.0795456 6.83793) (29.4764 -0.00466217 0.0541383)
183           (30.1967 -0.019029 -0.0250888) (0.912984 0.0795726 6.84001) (29.4764 -0.00463862 0.0541855)
184           (30.1967 -0.0190299 -0.0250696) (0.913718 0.079611 6.84197) (29.4765 -0.00461623 0.0542345)
185           (30.1967 -0.0190309 -0.0250509) (0.914208 0.0796659 6.844) (29.4764 -0.00459492 0.0542876)
186           (30.1967 -0.0190317 -0.0250332) (0.914133 0.0797628 6.84606) (29.4761 -0.0045721 0.0543351)
187           (30.1967 -0.0190321 -0.025017) (0.914448 0.0798706 6.84787) (29.4759 -0.00454986 0.054387)
188           (30.1967 -0.0190324 -0.0250013) (0.915033 0.0799775 6.8495) (29.4757 -0.0045289 0.0544422)
189           (30.1967 -0.019033 -0.0249852) (0.915705 0.0800757 6.85105) (29.4755 -0.0045099 0.0544959)
190           (30.1967 -0.0190337 -0.024969) (0.916058 0.0801785 6.85265) (29.4751 -0.00449212 0.0545604)
191           (30.1967 -0.0190344 -0.0249536) (0.915834 0.0803117 6.85426) (29.4746 -0.00447262 0.0546314)
192           (30.1967 -0.0190349 -0.0249416) (0.915901 0.0804479 6.85564) (29.4742 -0.00445415 0.0547079)
193           (30.1968 -0.0190354 -0.0249325) (0.916214 0.0805774 6.85687) (29.4738 -0.00443708 0.0547892)
194           (30.1968 -0.0190359 -0.0249248) (0.91668 0.0806913 6.85799) (29.4734 -0.00442171 0.0548712)
195           (30.1968 -0.0190363 -0.0249171) (0.917116 0.0807898 6.85904) (29.473 -0.00440794 0.0549534)
196           (30.1968 -0.0190378 -0.0249107) (0.91723 0.0808908 6.8601) (29.4724 -0.00439353 0.0550518)
197           (30.1967 -0.01904 -0.0249042) (0.916865 0.0810143 6.86116) (29.4715 -0.00437484 0.055157)
198           (30.1966 -0.0190413 -0.0248946) (0.916697 0.0811375 6.86207) (29.4707 -0.00435636 0.0552651)
199           (30.1964 -0.019042 -0.0248842) (0.916745 0.0812528 6.86285) (29.47 -0.00433882 0.0553746)
200           (30.1963 -0.0190425 -0.0248742) (0.916976 0.081352 6.86354) (29.4694 -0.00432293 0.0554809)
201           (30.1962 -0.019043 -0.0248656) (0.917263 0.0814331 6.86415) (29.4687 -0.00430893 0.055584)
202           (30.1962 -0.0190431 -0.0248592) (0.917457 0.0815006 6.8647) (29.4681 -0.00429613 0.0556884)
203           (30.1963 -0.019042 -0.0248503) (0.917404 0.0815682 6.86523) (29.4674 -0.00428287 0.0558129)
204           (30.1965 -0.0190401 -0.0248404) (0.917048 0.081647 6.86576) (29.4666 -0.0042672 0.0559532)
205           (30.1968 -0.0190391 -0.0248361) (0.916785 0.0817249 6.86623) (29.4658 -0.00425246 0.0560963)
206           (30.197 -0.019039 -0.0248349) (0.916656 0.0817975 6.86663) (29.4652 -0.00423925 0.0562384)
207           (30.1972 -0.0190398 -0.024835) (0.916661 0.0818597 6.86698) (29.4645 -0.00422777 0.056375)
208           (30.1974 -0.0190413 -0.0248361) (0.916732 0.0819089 6.86727) (29.4639 -0.00421759 0.0565058)
209           (30.1974 -0.0190436 -0.0248381) (0.91678 0.0819464 6.86751) (29.4633 -0.0042077 0.0566351)
210           (30.1972 -0.0190482 -0.0248463) (0.916716 0.0819789 6.86774) (29.4624 -0.00419542 0.0567857)
211           (30.1966 -0.0190536 -0.0248536) (0.916477 0.0820131 6.86802) (29.4611 -0.00417744 0.0569435)
212           (30.1961 -0.0190564 -0.02485) (0.916215 0.0820487 6.86827) (29.46 -0.00415965 0.0570919)
213           (30.1957 -0.0190569 -0.024838) (0.915977 0.0820872 6.86851) (29.4591 -0.00414299 0.0572309)
214           (30.1954 -0.0190558 -0.0248212) (0.9158 0.0821267 6.86872) (29.4582 -0.0041282 0.0573585)
215           (30.1953 -0.019054 -0.0248052) (0.915676 0.0821629 6.86891) (29.4574 -0.00411539 0.0574782)
216           (30.1953 -0.0190519 -0.0247936) (0.915577 0.0821923 6.86906) (29.4567 -0.00410424 0.0575959)
217           (30.1955 -0.0190498 -0.0247865) (0.915478 0.0822144 6.86917) (29.4561 -0.0040947 0.0577166)
218           (30.1957 -0.019048 -0.024784) (0.915367 0.0822307 6.86922) (29.4556 -0.00408715 0.0578434)
219           (30.1961 -0.0190466 -0.0247859) (0.915242 0.0822437 6.86922) (29.4553 -0.00408182 0.057977)
220           (30.1964 -0.0190459 -0.0247957) (0.915132 0.0822551 6.86916) (29.4549 -0.00407707 0.0581223)
221           (30.1968 -0.0190459 -0.0248099) (0.915025 0.0822634 6.86909) (29.4544 -0.00407067 0.0582574)
222           (30.1971 -0.019046 -0.0248207) (0.914849 0.0822716 6.86902) (29.4539 -0.00406505 0.0583778)
223           (30.1974 -0.0190464 -0.0248299) (0.914652 0.0822801 6.86894) (29.4534 -0.00405922 0.0584882)
224           (30.1975 -0.0190474 -0.0248364) (0.914451 0.0822867 6.86889) (29.4529 -0.0040525 0.0585881)
225           (30.1975 -0.0190488 -0.0248371) (0.91424 0.0822889 6.86888) (29.4523 -0.00404522 0.0586803)
226           (30.1974 -0.0190511 -0.0248315) (0.914016 0.0822869 6.86893) (29.4518 -0.00403801 0.0587708)
227           (30.1973 -0.0190542 -0.0248207) (0.913782 0.0822838 6.86903) (29.4513 -0.0040312 0.0588666)
228           (30.197 -0.0190578 -0.0248064) (0.913543 0.0822833 6.86917) (29.4508 -0.00402479 0.0589724)
229           (30.1967 -0.0190613 -0.024792) (0.913311 0.0822874 6.86929) (29.4504 -0.00401872 0.0590861)
230           (30.1965 -0.0190638 -0.0247801) (0.91308 0.0822968 6.86936) (29.45 -0.00401309 0.0591969)
231           (30.1963 -0.0190652 -0.0247719) (0.912832 0.082312 6.86936) (29.4496 -0.0040082 0.0592961)
232           (30.1961 -0.0190656 -0.0247682) (0.912602 0.0823333 6.86926) (29.4492 -0.004004 0.059382)
233           (30.196 -0.0190652 -0.0247675) (0.912451 0.0823585 6.86903) (29.4489 -0.00400009 0.0594561)
234           (30.196 -0.0190642 -0.0247687) (0.912425 0.082381 6.86867) (29.4486 -0.00399603 0.0595219)
235           (30.1961 -0.019063 -0.0247723) (0.912523 0.0823922 6.86823) (29.4483 -0.00399166 0.0595844)
236           (30.1963 -0.019062 -0.0247783) (0.912677 0.0823857 6.86778) (29.448 -0.00398738 0.059648)
237           (30.1964 -0.0190613 -0.024787) (0.912791 0.0823598 6.86742) (29.4477 -0.00398387 0.0597159)
238           (30.1966 -0.019061 -0.0247985) (0.912778 0.0823173 6.86726) (29.4475 -0.0039817 0.059789)
239           (30.1968 -0.0190611 -0.0248102) (0.912593 0.0822625 6.86737) (29.4473 -0.00398112 0.0598655)
240           (30.197 -0.0190617 -0.0248182) (0.912245 0.0821991 6.86779) (29.4471 -0.00398204 0.0599411)
241           (30.1971 -0.0190624 -0.0248201) (0.911766 0.0821308 6.86853) (29.4469 -0.00398417 0.0600104)
242           (30.1971 -0.0190633 -0.0248168) (0.9112 0.0820628 6.86954) (29.4467 -0.00398704 0.0600697)
243           (30.1971 -0.0190641 -0.0248107) (0.910591 0.082002 6.87077) (29.4464 -0.00399005 0.0601171)
244           (30.1971 -0.0190649 -0.0248039) (0.910001 0.0819565 6.87212) (29.4462 -0.00399257 0.0601531)
245           (30.197 -0.019066 -0.0247973) (0.909506 0.0819321 6.87345) (29.4459 -0.00399387 0.0601801)
246           (30.1969 -0.0190673 -0.0247916) (0.909171 0.0819313 6.87461) (29.4456 -0.00399331 0.0602015)
247           (30.1968 -0.0190688 -0.0247875) (0.909035 0.0819538 6.87546) (29.4453 -0.00399054 0.0602217)
248           (30.1967 -0.0190704 -0.0247851) (0.909096 0.081997 6.87589) (29.445 -0.00398558 0.060245)
249           (30.1966 -0.0190718 -0.0247839) (0.909322 0.0820573 6.87587) (29.4447 -0.00397883 0.0602745)
250           (30.1966 -0.0190726 -0.0247837) (0.909669 0.0821282 6.87541) (29.4445 -0.00397094 0.0603121)
251           (30.1965 -0.0190731 -0.0247845) (0.910081 0.0822007 6.87461) (29.4443 -0.0039627 0.0603575)
252           (30.1965 -0.0190731 -0.0247861) (0.910489 0.0822639 6.87357) (29.4442 -0.0039551 0.0604094)
253           (30.1965 -0.0190731 -0.0247887) (0.91082 0.0823076 6.87247) (29.4441 -0.00394913 0.0604649)
254           (30.1965 -0.019073 -0.0247925) (0.911002 0.0823246 6.87148) (29.4441 -0.0039457 0.0605212)
255           (30.1965 -0.0190729 -0.0247971) (0.910983 0.0823123 6.87075) (29.4441 -0.00394534 0.0605753)
256           (30.1966 -0.0190727 -0.0248012) (0.910744 0.0822718 6.8704) (29.4441 -0.00394811 0.0606248)
257           (30.1967 -0.0190726 -0.0248041) (0.910303 0.0822073 6.87051) (29.4442 -0.00395354 0.0606685)
258           (30.1967 -0.0190726 -0.0248062) (0.909716 0.0821259 6.8711) (29.4442 -0.00396076 0.060706)
259           (30.1968 -0.0190729 -0.0248084) (0.909066 0.0820359 6.87211) (29.4442 -0.0039687 0.0607377)
260           (30.1968 -0.0190733 -0.02481) (0.908441 0.0819464 6.87346) (29.4442 -0.00397629 0.0607644)
261           (30.1969 -0.0190736 -0.0248109) (0.907916 0.0818665 6.875) (29.4441 -0.00398262 0.0607864)
262           (30.1969 -0.019074 -0.0248117) (0.907535 0.0818042 6.87656) (29.4441 -0.00398706 0.0608041)
263           (30.197 -0.0190745 -0.024812) (0.907306 0.0817655 6.87801) (29.4439 -0.0039893 0.0608181)
264           (30.197 -0.0190751 -0.0248107) (0.907222 0.0817538 6.87922) (29.4438 -0.00398934 0.0608291)
265           (30.197 -0.0190759 -0.0248075) (0.907271 0.0817685 6.8801) (29.4436 -0.00398746 0.0608387)
266           (30.1969 -0.0190767 -0.0248035) (0.907438 0.0818051 6.88063) (29.4435 -0.00398411 0.0608482)
267           (30.1969 -0.0190774 -0.0247995) (0.9077 0.0818559 6.88079) (29.4434 -0.00397983 0.0608588)
268           (30.1969 -0.019078 -0.0247963) (0.90802 0.0819117 6.88064) (29.4433 -0.00397527 0.0608718)
269           (30.1969 -0.0190785 -0.024794) (0.908347 0.0819639 6.88025) (29.4432 -0.00397108 0.0608883)
270           (30.1968 -0.0190791 -0.0247927) (0.90862 0.0820057 6.87973) (29.4431 -0.00396788 0.0609094)
271           (30.1968 -0.0190797 -0.0247925) (0.908787 0.0820328 6.87918) (29.4431 -0.00396617 0.0609355)
272           (30.1968 -0.0190803 -0.0247929) (0.908816 0.0820432 6.87871) (29.4431 -0.00396622 0.0609656)
273           (30.1968 -0.0190808 -0.0247933) (0.908696 0.0820368 6.87842) (29.4431 -0.00396803 0.0609984)
274           (30.1967 -0.0190812 -0.0247937) (0.908447 0.0820149 6.87835) (29.4432 -0.00397134 0.0610319)
275           (30.1967 -0.0190817 -0.0247941) (0.908106 0.0819806 6.87855) (29.4432 -0.00397579 0.061064)
276           (30.1967 -0.0190822 -0.0247945) (0.90772 0.0819376 6.87901) (29.4433 -0.00398091 0.0610929)
277           (30.1967 -0.0190827 -0.0247948) (0.90734 0.0818903 6.8797) (29.4433 -0.00398621 0.0611174)
278           (30.1967 -0.0190832 -0.0247953) (0.90701 0.0818428 6.88057) (29.4434 -0.00399124 0.0611368)
279           (30.1967 -0.0190837 -0.0247961) (0.906761 0.081799 6.88154) (29.4434 -0.00399564 0.0611513)
280           (30.1967 -0.0190843 -0.0247971) (0.906606 0.081762 6.88254) (29.4434 -0.00399918 0.0611616)
281           (30.1967 -0.0190848 -0.0247981) (0.906543 0.0817342 6.88349) (29.4434 -0.00400174 0.0611689)
282           (30.1967 -0.0190854 -0.0247991) (0.906555 0.0817172 6.88434) (29.4434 -0.00400336 0.0611745)
283           (30.1967 -0.0190859 -0.0247999) (0.906615 0.0817117 6.88504) (29.4434 -0.00400413 0.0611799)