# y+ ()       
# Time        	patch         	min           	max           	average       
0             	nozzle_int	0.000000e+00	0.000000e+00	0.000000e+00
0             	nozzle_ext	0.000000e+00	0.000000e+00	0.000000e+00
0             	collector_int	0.000000e+00	0.000000e+00	0.000000e+00
0             	collector_ext	0.000000e+00	0.000000e+00	0.000000e+00
0             	diffuser_int	0.000000e+00	0.000000e+00	0.000000e+00
0             	diffuser_ext	0.000000e+00	0.000000e+00	0.000000e+00
10            	nozzle_int	3.738954e+00	1.641055e+03	9.624855e+01
10            	nozzle_ext	8.479611e-04	5.265837e+01	2.618539e+00
10            	collector_int	4.464087e+00	6.268408e+02	1.126678e+02
10            	collector_ext	1.576180e-01	7.756609e+01	1.019291e+01
10            	diffuser_int	4.520644e+00	8.300117e+02	1.947896e+02
10            	diffuser_ext	5.537458e-03	8.348596e+01	2.757219e+00
20            	nozzle_int	5.195554e+00	1.390519e+03	6.525490e+01
20            	nozzle_ext	5.852082e-03	4.008795e+01	1.691512e+00
20            	collector_int	7.771288e+00	5.279877e+02	8.335940e+01
20            	collector_ext	2.620484e-01	1.038899e+02	1.053493e+01
20            	diffuser_int	5.853224e+00	4.200128e+02	1.117406e+02
20            	diffuser_ext	3.554689e-03	6.154308e+01	2.547606e+00
30            	nozzle_int	5.056461e+00	1.098981e+03	5.472259e+01
30            	nozzle_ext	3.193461e-03	5.332017e+01	1.339721e+00
30            	collector_int	7.789244e+00	6.902773e+02	1.036025e+02
30            	collector_ext	1.885396e-01	1.111105e+02	1.059774e+01
30            	diffuser_int	4.591097e+00	7.873295e+02	7.434830e+01
30            	diffuser_ext	1.106140e-02	1.239562e+02	6.515682e+00
40            	nozzle_int	3.676570e+00	9.101746e+02	5.224102e+01
40            	nozzle_ext	1.395288e-02	4.270896e+01	1.039800e+00
40            	collector_int	4.872814e+00	6.418262e+02	8.421323e+01
40            	collector_ext	1.838355e-02	9.126161e+01	1.095062e+01
40            	diffuser_int	3.589089e+00	7.468690e+02	6.623885e+01
40            	diffuser_ext	4.094767e-02	1.159043e+02	8.259556e+00
50            	nozzle_int	2.861281e+00	8.778987e+02	5.170160e+01
50            	nozzle_ext	7.595030e-03	2.075321e+01	9.351765e-01
50            	collector_int	1.520067e+00	5.890242e+02	6.504573e+01
50            	collector_ext	4.322627e-02	9.549788e+01	1.144329e+01
50            	diffuser_int	3.175940e+00	7.613934e+02	6.534171e+01
50            	diffuser_ext	3.932847e-02	1.043121e+02	9.130694e+00
60            	nozzle_int	2.588233e+00	8.832326e+02	5.158605e+01
60            	nozzle_ext	5.923947e-03	2.045619e+01	8.543619e-01
60            	collector_int	1.639787e+00	7.748337e+02	5.741964e+01
60            	collector_ext	1.058296e-01	9.395576e+01	1.002687e+01
60            	diffuser_int	3.435137e+00	6.452086e+02	6.183887e+01
60            	diffuser_ext	8.925934e-02	1.065264e+02	9.434193e+00
70            	nozzle_int	2.548789e+00	8.868160e+02	5.162793e+01
70            	nozzle_ext	2.024157e-03	2.076815e+01	7.784944e-01
70            	collector_int	1.932982e+00	5.633088e+02	6.488336e+01
70            	collector_ext	5.862564e-02	9.561917e+01	1.035313e+01
70            	diffuser_int	2.107556e+00	4.982798e+02	5.838872e+01
70            	diffuser_ext	6.668203e-02	9.940666e+01	8.417690e+00
80            	nozzle_int	2.567134e+00	8.889598e+02	5.169855e+01
80            	nozzle_ext	3.090843e-03	2.110871e+01	7.445819e-01
80            	collector_int	2.132444e+00	4.697897e+02	7.252318e+01
80            	collector_ext	1.103557e-01	8.883859e+01	1.005916e+01
80            	diffuser_int	3.624750e+00	4.588732e+02	4.981870e+01
80            	diffuser_ext	3.358480e-02	9.467843e+01	7.410102e+00
90            	nozzle_int	2.236941e+00	8.882333e+02	5.173604e+01
90            	nozzle_ext	3.088527e-03	2.115226e+01	7.222018e-01
90            	collector_int	2.118801e+00	4.899088e+02	7.679466e+01
90            	collector_ext	2.293842e-01	8.516887e+01	1.064419e+01
90            	diffuser_int	3.813792e+00	4.872936e+02	4.504757e+01
90            	diffuser_ext	3.485986e-02	8.440233e+01	6.820419e+00
100           	nozzle_int	2.374990e+00	8.884702e+02	5.176990e+01
100           	nozzle_ext	2.155702e-04	2.131760e+01	7.314405e-01
100           	collector_int	6.397928e+00	5.003042e+02	7.914651e+01
100           	collector_ext	3.203021e-02	9.455622e+01	1.043555e+01
100           	diffuser_int	3.809448e+00	5.178914e+02	4.382356e+01
100           	diffuser_ext	4.750061e-02	9.007927e+01	6.957227e+00
110           	nozzle_int	1.760381e+00	8.905377e+02	5.180568e+01
110           	nozzle_ext	2.783863e-03	2.120330e+01	7.558784e-01
110           	collector_int	6.504987e+00	5.137365e+02	8.059383e+01
110           	collector_ext	7.462530e-02	9.225488e+01	1.053217e+01
110           	diffuser_int	2.604737e+00	5.293807e+02	4.627763e+01
110           	diffuser_ext	3.646978e-02	9.227026e+01	6.868763e+00
120           	nozzle_int	2.563988e+00	8.933119e+02	5.184902e+01
120           	nozzle_ext	2.211695e-03	2.086287e+01	7.588007e-01
120           	collector_int	6.759054e+00	5.229224e+02	8.145677e+01
120           	collector_ext	1.942671e-01	8.754182e+01	1.042446e+01
120           	diffuser_int	1.556373e+00	5.415885e+02	4.780053e+01
120           	diffuser_ext	4.601408e-02	9.357539e+01	6.784737e+00
130           	nozzle_int	2.581169e+00	8.954119e+02	5.190196e+01
130           	nozzle_ext	1.689534e-03	2.060957e+01	7.460332e-01
130           	collector_int	6.967051e+00	5.236055e+02	8.206382e+01
130           	collector_ext	1.229214e-01	8.849948e+01	1.066463e+01
130           	diffuser_int	1.341670e+00	5.422879e+02	4.989181e+01
130           	diffuser_ext	4.233244e-02	9.271906e+01	6.712797e+00
140           	nozzle_int	2.600772e+00	8.964476e+02	5.194885e+01
140           	nozzle_ext	3.062706e-03	2.039263e+01	7.299433e-01
140           	collector_int	7.096780e+00	5.245285e+02	8.247000e+01
140           	collector_ext	2.517053e-02	8.904141e+01	1.086939e+01
140           	diffuser_int	2.031966e+00	5.434895e+02	5.204645e+01
140           	diffuser_ext	2.158859e-02	9.248044e+01	6.441699e+00
150           	nozzle_int	2.610884e+00	8.969011e+02	5.198006e+01
150           	nozzle_ext	3.259523e-03	2.009615e+01	7.183021e-01
150           	collector_int	7.125578e+00	5.259573e+02	8.268106e+01
150           	collector_ext	6.867324e-02	8.943034e+01	1.089701e+01
150           	diffuser_int	1.336651e+00	5.459453e+02	5.456092e+01
150           	diffuser_ext	3.879621e-02	9.225786e+01	6.295297e+00
160           	nozzle_int	2.621559e+00	8.970356e+02	5.199630e+01
160           	nozzle_ext	2.784401e-03	1.983641e+01	7.132316e-01
160           	collector_int	7.154477e+00	5.271181e+02	8.286656e+01
160           	collector_ext	1.217499e-01	8.963735e+01	1.084142e+01
160           	diffuser_int	1.097893e+00	5.478067e+02	5.616756e+01
160           	diffuser_ext	7.455422e-03	9.215698e+01	6.381446e+00
170           	nozzle_int	2.631686e+00	8.970603e+02	5.200384e+01
170           	nozzle_ext	1.739848e-03	1.966966e+01	7.117131e-01
170           	collector_int	7.173900e+00	5.285727e+02	8.307171e+01
170           	collector_ext	1.402953e-01	8.975558e+01	1.074796e+01
170           	diffuser_int	2.001053e+00	5.496680e+02	5.743623e+01
170           	diffuser_ext	1.642618e-02	9.204222e+01	6.075954e+00
180           	nozzle_int	2.640878e+00	8.970599e+02	5.200719e+01
180           	nozzle_ext	7.294782e-04	1.956653e+01	7.123054e-01
180           	collector_int	7.195099e+00	5.306603e+02	8.325911e+01
180           	collector_ext	6.703609e-02	8.980350e+01	1.072228e+01
180           	diffuser_int	2.697879e+00	5.523714e+02	5.832948e+01
180           	diffuser_ext	2.564798e-02	9.198937e+01	5.763082e+00
190           	nozzle_int	2.649722e+00	8.970489e+02	5.200866e+01
190           	nozzle_ext	3.976387e-03	1.951680e+01	7.132317e-01
190           	collector_int	7.214090e+00	5.325684e+02	8.340179e+01
190           	collector_ext	1.325225e-01	8.986889e+01	1.075677e+01
190           	diffuser_int	2.402402e+00	5.551157e+02	5.894192e+01
190           	diffuser_ext	5.858088e-02	9.197354e+01	5.730123e+00
200           	nozzle_int	2.658973e+00	8.970425e+02	5.200940e+01
200           	nozzle_ext	1.224690e-03	1.948367e+01	7.141878e-01
200           	collector_int	7.222982e+00	5.338757e+02	8.348058e+01
200           	collector_ext	6.187731e-02	8.995386e+01	1.076045e+01
200           	diffuser_int	2.129411e+00	5.571929e+02	5.940069e+01
200           	diffuser_ext	1.005993e-02	9.195970e+01	5.783223e+00
210           	nozzle_int	2.666020e+00	8.970400e+02	5.200978e+01
210           	nozzle_ext	7.477271e-04	1.946895e+01	7.151521e-01
210           	collector_int	7.223683e+00	5.346301e+02	8.349429e+01
210           	collector_ext	1.633273e-01	9.004055e+01	1.076690e+01
210           	diffuser_int	2.376162e+00	5.583711e+02	5.976331e+01
210           	diffuser_ext	3.201041e-02	9.198440e+01	5.763705e+00
220           	nozzle_int	2.673420e+00	8.970357e+02	5.201006e+01
220           	nozzle_ext	7.791387e-04	1.945783e+01	7.160247e-01
220           	collector_int	7.219113e+00	5.349230e+02	8.347124e+01
220           	collector_ext	2.034910e-01	9.006995e+01	1.077550e+01
220           	diffuser_int	2.429667e+00	5.589561e+02	6.001866e+01
220           	diffuser_ext	4.526227e-02	9.198470e+01	5.677420e+00
230           	nozzle_int	2.680702e+00	8.970302e+02	5.201033e+01
230           	nozzle_ext	2.256217e-03	1.944875e+01	7.169856e-01
230           	collector_int	7.213202e+00	5.349613e+02	8.343264e+01
230           	collector_ext	2.591217e-01	9.008463e+01	1.077336e+01
230           	diffuser_int	2.536098e+00	5.590738e+02	6.019625e+01
230           	diffuser_ext	1.588069e-02	9.201815e+01	5.713995e+00
240           	nozzle_int	2.688965e+00	8.970272e+02	5.201064e+01
240           	nozzle_ext	2.782506e-03	1.944766e+01	7.179075e-01
240           	collector_int	7.206940e+00	5.348728e+02	8.339368e+01
240           	collector_ext	2.326492e-01	9.008402e+01	1.076536e+01
240           	diffuser_int	2.228097e+00	5.590049e+02	6.029472e+01
240           	diffuser_ext	1.376854e-02	9.202419e+01	5.740571e+00
250           	nozzle_int	2.696950e+00	8.970246e+02	5.201095e+01
250           	nozzle_ext	2.308627e-03	1.942613e+01	7.190247e-01
250           	collector_int	7.201374e+00	5.347992e+02	8.336044e+01
250           	collector_ext	2.055541e-01	9.008596e+01	1.076054e+01
250           	diffuser_int	2.152495e+00	5.588632e+02	6.035844e+01
250           	diffuser_ext	2.415600e-02	9.205576e+01	5.696958e+00
260           	nozzle_int	2.706045e+00	8.970284e+02	5.201130e+01
260           	nozzle_ext	1.630357e-03	1.941112e+01	7.203524e-01
260           	collector_int	7.197429e+00	5.347439e+02	8.333810e+01
260           	collector_ext	1.198403e-01	9.007459e+01	1.075766e+01
260           	diffuser_int	2.138660e+00	5.587874e+02	6.038370e+01
260           	diffuser_ext	1.306266e-02	9.205693e+01	5.669411e+00
270           	nozzle_int	2.715171e+00	8.970236e+02	5.201167e+01
270           	nozzle_ext	4.347885e-03	1.940916e+01	7.216498e-01
270           	collector_int	7.195559e+00	5.347150e+02	8.332409e+01
270           	collector_ext	1.069294e-01	9.007187e+01	1.075724e+01
270           	diffuser_int	2.196000e+00	5.586921e+02	6.038928e+01
270           	diffuser_ext	2.611491e-02	9.208735e+01	5.696622e+00
280           	nozzle_int	2.725046e+00	8.970226e+02	5.201205e+01
280           	nozzle_ext	2.585120e-03	1.938675e+01	7.231063e-01
280           	collector_int	7.195162e+00	5.346887e+02	8.331860e+01
280           	collector_ext	1.251182e-01	9.006344e+01	1.075504e+01
280           	diffuser_int	2.301534e+00	5.586590e+02	6.038415e+01
280           	diffuser_ext	3.326736e-02	9.208770e+01	5.712881e+00
290           	nozzle_int	2.735396e+00	8.970285e+02	5.201247e+01
290           	nozzle_ext	7.683719e-04	1.935789e+01	7.246224e-01
290           	collector_int	7.196748e+00	5.347053e+02	8.331755e+01
290           	collector_ext	8.656628e-02	9.006195e+01	1.075357e+01
290           	diffuser_int	2.361886e+00	5.586534e+02	6.037414e+01
290           	diffuser_ext	1.412971e-02	9.209352e+01	5.684822e+00
300           	nozzle_int	2.746164e+00	8.970352e+02	5.201290e+01
300           	nozzle_ext	2.670211e-03	1.932570e+01	7.262735e-01
300           	collector_int	7.199243e+00	5.347431e+02	8.332065e+01
300           	collector_ext	1.020833e-01	9.005827e+01	1.075230e+01
300           	diffuser_int	2.415922e+00	5.586809e+02	6.036445e+01
300           	diffuser_ext	3.476486e-02	9.210276e+01	5.673248e+00
310           	nozzle_int	2.757379e+00	8.970413e+02	5.201334e+01
310           	nozzle_ext	4.393591e-03	1.929126e+01	7.279776e-01
310           	collector_int	7.202345e+00	5.347841e+02	8.332659e+01
310           	collector_ext	1.297570e-01	9.005484e+01	1.075163e+01
310           	diffuser_int	2.432897e+00	5.587288e+02	6.035448e+01
310           	diffuser_ext	1.821727e-02	9.210644e+01	5.695570e+00
320           	nozzle_int	2.768977e+00	8.970480e+02	5.201380e+01
320           	nozzle_ext	3.736872e-03	1.925475e+01	7.297279e-01
320           	collector_int	7.206170e+00	5.348233e+02	8.333330e+01
320           	collector_ext	1.497230e-01	9.005223e+01	1.075109e+01
320           	diffuser_int	2.410195e+00	5.587827e+02	6.034505e+01
320           	diffuser_ext	1.328908e-02	9.210461e+01	5.699115e+00
330           	nozzle_int	2.780943e+00	8.970558e+02	5.201425e+01
330           	nozzle_ext	2.615809e-03	1.921496e+01	7.315791e-01
330           	collector_int	7.210161e+00	5.348728e+02	8.333986e+01
330           	collector_ext	1.744154e-01	9.005160e+01	1.075075e+01
330           	diffuser_int	2.252141e+00	5.588406e+02	6.033852e+01
330           	diffuser_ext	1.768600e-02	9.210552e+01	5.679821e+00
340           	nozzle_int	2.793344e+00	8.970628e+02	5.201471e+01
340           	nozzle_ext	2.153527e-03	1.917444e+01	7.335040e-01
340           	collector_int	7.214180e+00	5.349295e+02	8.334751e+01
340           	collector_ext	1.990831e-01	9.004904e+01	1.075031e+01
340           	diffuser_int	2.127605e+00	5.589110e+02	6.033404e+01
340           	diffuser_ext	2.129384e-02	9.210682e+01	5.675433e+00
350           	nozzle_int	2.806085e+00	8.970705e+02	5.201518e+01
350           	nozzle_ext	1.390248e-03	1.913180e+01	7.355124e-01
350           	collector_int	7.218380e+00	5.349860e+02	8.335563e+01
350           	collector_ext	2.251391e-01	9.004650e+01	1.074988e+01
350           	diffuser_int	2.092237e+00	5.589881e+02	6.032967e+01
350           	diffuser_ext	3.669384e-02	9.210639e+01	5.692496e+00
360           	nozzle_int	2.819240e+00	8.970776e+02	5.201565e+01
360           	nozzle_ext	1.463193e-03	1.908617e+01	7.375611e-01
360           	collector_int	7.222603e+00	5.350370e+02	8.336333e+01
360           	collector_ext	2.482239e-01	9.004532e+01	1.074957e+01
360           	diffuser_int	2.047153e+00	5.590611e+02	6.032644e+01
360           	diffuser_ext	1.273413e-02	9.210465e+01	5.686176e+00
370           	nozzle_int	2.832542e+00	8.970849e+02	5.201611e+01
370           	nozzle_ext	3.941700e-04	1.903951e+01	7.396375e-01
370           	collector_int	7.226583e+00	5.350836e+02	8.337134e+01
370           	collector_ext	2.685455e-01	9.004398e+01	1.074921e+01
370           	diffuser_int	1.929722e+00	5.591265e+02	6.032511e+01
370           	diffuser_ext	1.457879e-02	9.210385e+01	5.671922e+00
380           	nozzle_int	2.846224e+00	8.970932e+02	5.201662e+01
380           	nozzle_ext	1.179358e-03	1.899079e+01	7.418333e-01
380           	collector_int	7.230441e+00	5.351203e+02	8.337987e+01
380           	collector_ext	1.183527e-01	9.004126e+01	1.074860e+01
380           	diffuser_int	1.848310e+00	5.591802e+02	6.032428e+01
380           	diffuser_ext	1.417477e-02	9.210328e+01	5.671523e+00
390           	nozzle_int	2.860288e+00	8.971015e+02	5.201711e+01
390           	nozzle_ext	6.207955e-04	1.893984e+01	7.440886e-01
390           	collector_int	7.234186e+00	5.351489e+02	8.338890e+01
390           	collector_ext	2.276811e-01	9.003877e+01	1.074845e+01
390           	diffuser_int	1.835598e+00	5.592211e+02	6.032325e+01
390           	diffuser_ext	1.137740e-02	9.210110e+01	5.684189e+00
400           	nozzle_int	2.874707e+00	8.971083e+02	5.201758e+01
400           	nozzle_ext	1.968315e-03	1.888747e+01	7.463882e-01
400           	collector_int	7.237823e+00	5.351757e+02	8.339806e+01
400           	collector_ext	1.157436e-01	9.003733e+01	1.074845e+01
400           	diffuser_int	1.808143e+00	5.592553e+02	6.032320e+01
400           	diffuser_ext	1.729473e-02	9.209848e+01	5.673687e+00
410           	nozzle_int	2.889463e+00	8.971152e+02	5.201812e+01
410           	nozzle_ext	1.265850e-03	1.883407e+01	7.487420e-01
410           	collector_int	7.241459e+00	5.352011e+02	8.340662e+01
410           	collector_ext	1.940673e-01	9.003526e+01	1.074844e+01
410           	diffuser_int	1.740302e+00	5.592865e+02	6.032413e+01
410           	diffuser_ext	2.041557e-02	9.209640e+01	5.663967e+00
420           	nozzle_int	2.904603e+00	8.971230e+02	5.201868e+01
420           	nozzle_ext	2.945124e-03	1.877741e+01	7.511564e-01
420           	collector_int	7.244907e+00	5.352244e+02	8.341498e+01
420           	collector_ext	2.884484e-01	9.003253e+01	1.074845e+01
420           	diffuser_int	1.705101e+00	5.593165e+02	6.032508e+01
420           	diffuser_ext	2.920139e-03	9.209382e+01	5.668182e+00
430           	nozzle_int	2.920164e+00	8.971300e+02	5.201924e+01
430           	nozzle_ext	8.937133e-04	1.871894e+01	7.536259e-01
430           	collector_int	7.248138e+00	5.352427e+02	8.342364e+01
430           	collector_ext	2.739545e-01	9.003018e+01	1.074847e+01
430           	diffuser_int	1.712886e+00	5.593443e+02	6.032598e+01
430           	diffuser_ext	5.202982e-02	9.209046e+01	5.674076e+00
440           	nozzle_int	2.936061e+00	8.971369e+02	5.201981e+01
440           	nozzle_ext	9.510935e-04	1.865849e+01	7.562447e-01
440           	collector_int	7.251337e+00	5.352554e+02	8.343150e+01
440           	collector_ext	2.395485e-01	9.002776e+01	1.074848e+01
440           	diffuser_int	1.703127e+00	5.593650e+02	6.032738e+01
440           	diffuser_ext	3.253307e-02	9.208677e+01	5.663852e+00
450           	nozzle_int	2.952375e+00	8.971478e+02	5.202045e+01
450           	nozzle_ext	1.797235e-03	1.859533e+01	7.588985e-01
450           	collector_int	7.254535e+00	5.352638e+02	8.343868e+01
450           	collector_ext	1.140481e-01	9.002449e+01	1.074840e+01
450           	diffuser_int	1.665051e+00	5.593794e+02	6.032908e+01
450           	diffuser_ext	4.529862e-02	9.208312e+01	5.659255e+00
460           	nozzle_int	2.969145e+00	8.971599e+02	5.202109e+01
460           	nozzle_ext	3.991384e-03	1.853018e+01	7.616455e-01
460           	collector_int	7.257837e+00	5.352660e+02	8.344590e+01
460           	collector_ext	1.831330e-01	9.002105e+01	1.074831e+01
460           	diffuser_int	1.654155e+00	5.593889e+02	6.033049e+01
460           	diffuser_ext	3.482441e-02	9.207864e+01	5.664241e+00
470           	nozzle_int	2.986469e+00	8.971694e+02	5.202171e+01
470           	nozzle_ext	4.918685e-03	1.846206e+01	7.644482e-01
470           	collector_int	7.261622e+00	5.352618e+02	8.345289e+01
470           	collector_ext	1.724745e-01	9.001743e+01	1.074824e+01
470           	diffuser_int	1.662455e+00	5.593938e+02	6.033167e+01
470           	diffuser_ext	4.010143e-02	9.207287e+01	5.665342e+00
480           	nozzle_int	3.004162e+00	8.971761e+02	5.202237e+01
480           	nozzle_ext	1.867972e-03	1.839191e+01	7.674373e-01
480           	collector_int	7.265329e+00	5.352540e+02	8.345925e+01
480           	collector_ext	1.168898e-01	9.001353e+01	1.074812e+01
480           	diffuser_int	1.644511e+00	5.593934e+02	6.033293e+01
480           	diffuser_ext	1.534217e-02	9.206698e+01	5.657622e+00
490           	nozzle_int	3.022480e+00	8.971844e+02	5.202303e+01
490           	nozzle_ext	1.033704e-03	1.831756e+01	7.704713e-01
490           	collector_int	7.268640e+00	5.352460e+02	8.346614e+01
490           	collector_ext	2.846332e-02	9.000880e+01	1.074790e+01
490           	diffuser_int	1.618412e+00	5.593942e+02	6.033411e+01
490           	diffuser_ext	1.398634e-02	9.206025e+01	5.655484e+00
500           	nozzle_int	3.041453e+00	8.971885e+02	5.202371e+01
500           	nozzle_ext	3.105893e-03	1.824066e+01	7.735696e-01
500           	collector_int	7.272164e+00	5.352326e+02	8.347348e+01
500           	collector_ext	4.628549e-02	9.000370e+01	1.074777e+01
500           	diffuser_int	1.612171e+00	5.593938e+02	6.033481e+01
500           	diffuser_ext	2.642779e-02	9.205208e+01	5.660236e+00
