# Probe 0 (-1 0 0)
# Probe 1 (1 0 0)
# Probe 2 (1.7 0 0)
# Time        0             1             2            
0             0             0             0            
1             1072.63       -357.443      -1226.04     
2             3134.8        -537.506      -2831.94     
3             1973.52       -296.706      -1952.79     
4             -394.549      1.19649       -233.413     
5             -1963.45      78.3583       672.97       
6             -1386.31      -20.5781      479.137      
7             302.961       -174.293      -433.932     
8             1176.08       -258.318      -1136.66     
9             723.303       -242.086      -1151.89     
10            -268.852      -144.281      -535.646     
11            -747.668      -93.9676      -124.382     
12            -416.52       -66.5626      4.46112      
13            173.579       -88.7608      -251.696     
14            424.219       -116.121      -505.156     
15            216.214       -137.984      -600.337     
16            -123.753      -128.347      -452.426     
17            -250.931      -108.917      -278.599     
18            -120.785      -86.837       -185.76      
19            76.9538       -79.8211      -237.87      
20            149.21        -89.5198      -346.948     
21            76.3483       -103.644      -417.15      
22            -35.2036      -111.716      -400.142     
23            -79.1156      -106.02       -322.92      
24            -39.9049      -93.3552      -258.748     
25            19.7137       -81.4104      -243.894     
26            51.6065       -77.4728      -272.352     
27            38.7176       -84.4332      -324.995     
28            12.1542       -90.5149      -343.149     
29            -13.4956      -92.2861      -320.494     
30            -14.0285      -87.1103      -285.413     
31            3.15626       -74.0818      -256.955     
32            17.7502       -63.6041      -246.576     
33            24.9928       -58.5873      -251.912     
34            21.575        -57.8826      -263.291     
35            11.7737       -56.4231      -265.287     
36            6.7117        -50.4418      -254.626     
37            5.14759       -38.7809      -230.922     
38            9.68168       -25.2294      -205.921     
39            15.3428       -14.9452      -191.429     
40            16.9998       -8.07289      -185.103     
41            16.2054       -2.20154      -180.83      
42            14.5827       2.62555       -174.859     
43            11.863        9.99721       -161.123     
44            11.6177       17.3206       -144.9       
45            12.4817       24.6103       -126.348     
46            14.0956       31.137        -108.545     
47            14.412        35.9349       -93.9926     
48            13.6655       39.1552       -83.1314     
49            12.9885       42.9405       -70.4127     
50            12.3463       47.246        -54.3213     
51            12.6855       51.6172       -36.848      
52            12.8528       55.3171       -19.8579     
53            12.53         58.2814       -3.92886     
54            11.8649       60.4639       11.9892      
55            11.5632       62.0656       28.6364      
56            11.5452       63.4891       45.5935      
57            11.8562       64.4977       61.6979      
58            11.9571       64.0355       75.8142      
59            11.7606       62.0446       87.6768      
60            11.1868       58.7078       97.1087      
61            10.6662       54.205        103.947      
62            10.3228       48.3163       108.204      
63            10.1661       40.4389       109.778      
64            10.0836       30.2727       108.349      
65            10.003        19.005        103.712      
66            9.811         8.88934       94.49        
67            9.47643       3.6284        85.9234      
68            9.37879       2.90874       80.5612      
69            9.30125       4.45231       77.008       
70            9.24144       7.00256       74.4983      
71            9.19647       8.91147       69.2939      
72            9.15409       11.7879       65.7229      
73            9.09224       14.4123       64.3171      
74            9.01349       16.6664       64.6134      
75            8.94807       19.3969       67.2788      
76            8.91124       23.188        73.09        
77            8.86145       27.7949       78.7954      
78            8.77025       32.9738       83.1071      
79            8.67755       37.6782       86.7998      
80            8.60767       40.4479       91.1161      
81            8.60665       40.0921       95.7447      
82            8.50028       36.9045       99.6212      
83            8.38503       32.4576       101.919      
84            8.26162       28.9261       102.958      
85            8.15251       27.3435       103.47       
86            8.06163       27.2948       103.308      
87            7.98545       27.6828       102.288      
88            7.91621       27.5146       100.47       
89            7.84783       26.4719       98.1142      
90            7.7926        25.0337       96.4812      
91            7.74562       23.4518       95.7824      
92            7.69313       21.9415       95.3605      
93            7.63193       20.5837       94.7819      
94            7.56473       19.3273       93.7483      
95            7.49266       18.2315       92.2182      
96            7.4272        17.2129       90.3512      
97            7.36816       15.9183       88.2644      
98            7.31698       14.14         86.0565      
99            7.29493       12.1002       84.0931      
100           7.29893       10.3339       82.9186      
101           7.31907       8.94195       82.2371      
102           7.35325       8.06287       81.8667      
103           7.40003       8.33055       82.6685      
104           7.46122       9.74512       84.1692      
105           7.47878       11.411        85.1142      
106           7.4925        13.0762       85.7204      
107           7.51069       14.5708       86.0445      
108           7.53098       15.5561       85.9401      
109           7.54114       15.889        85.3386      
110           7.54107       15.6993       84.3772      
111           7.53257       15.2944       83.3528      
112           7.52103       14.9246       82.5435      
113           7.50057       14.7218       82.3171      
114           7.4875        14.8092       83.1457      
115           7.4657        15.1596       84.9383      
116           7.45881       15.6182       87.0897      
117           7.47097       16.1115       89.111       
118           7.46444       16.6331       90.7614      
119           7.45741       17.1224       91.8675      
120           7.44246       17.4786       92.2813      
121           7.42387       17.6621       92.1076      
122           7.40107       17.758        91.5548      
123           7.35408       17.6215       90.1322      
124           7.2621        16.8718       87.1071      
125           7.22099       15.9413       83.7672      
126           7.20386       15.3329       81.2823      
127           7.20024       15.0587       79.7717      
128           7.17765       14.7955       78.3548      
129           7.13239       14.4357       76.8623      
130           7.06893       14.0566       75.6129      
131           7.01057       13.788        74.9308      
132           6.9699        13.6543       74.782       
133           6.93166       13.5957       74.9238      
134           6.86434       13.6487       75.4379      
135           6.81786       13.8577       76.4696      
136           6.79145       14.0097       77.2788      
137           6.77668       14.0095       77.4945      
138           6.75098       13.9844       77.5243      
139           6.70456       13.9261       77.3243      
140           6.63303       13.7882       76.7515      
141           6.55835       13.5877       75.9059      
142           6.5154        13.4062       75.0706      
143           6.49177       13.2795       74.3692      
144           6.47053       13.1739       73.689       
145           6.44604       13.031        72.8186      
146           6.40646       12.9013       71.8911      
147           6.3649        12.8015       70.9613      
148           6.32537       12.7455       70.094       
149           6.30223       12.7604       69.3866      
150           6.29003       12.8113       68.766       
151           6.28563       12.8963       68.2454      
152           6.27347       13.0241       67.8616      
153           6.25701       13.1988       67.6219      
154           6.24022       13.417        67.4937      
155           6.22736       13.6719       67.4417      
156           6.2222        13.9497       67.4403      
157           6.22011       14.2344       67.4753      
158           6.22292       14.5245       67.5332      
159           6.21583       14.7892       67.6346      
160           6.20855       15.0606       67.7519      
161           6.19766       15.313        67.8709      
162           6.1878        15.5317       67.9688      
163           6.17943       15.7086       68.0393      
164           6.1718        15.8472       68.0962      
165           6.16406       15.9559       68.1563      
166           6.15724       16.0357       68.2203      
167           6.14889       16.0805       68.2768      
168           6.13735       16.0853       68.3173      
169           6.12538       16.0512       68.3406      
170           6.11431       15.9854       68.3572      
171           6.10436       15.8957       68.3781      
172           6.09446       15.7852       68.4056      
173           6.08364       15.6563       68.4368      
174           6.07196       15.5125       68.4713      
175           6.05402       15.3593       68.5128      
176           6.04321       15.202        68.5646      
177           6.03456       15.0452       68.6296      
178           6.03491       14.8925       68.7075      
179           6.02906       14.746        68.7958      
180           6.0149        14.6099       68.8972      
181           6.00584       14.4872       69.0113      
182           5.99759       14.3809       69.1379      
183           5.99167       14.294        69.2765      
184           5.98772       14.2276       69.4271      
185           5.98445       14.1816       69.5896      
186           5.98079       14.1562       69.7641      
187           5.97657       14.1512       69.9511      
188           5.96746       14.1668       70.1508      
189           5.96351       14.2026       70.3625      
190           5.96089       14.2578       70.5839      
191           5.95959       14.3313       70.811       
192           5.95882       14.4226       71.0417      
193           5.95776       14.5293       71.2745      
194           5.95623       14.6496       71.5108      
195           5.95438       14.7809       71.751       
196           5.95244       14.9213       71.9956      
197           5.94831       15.0679       72.2413      
198           5.94384       15.2172       72.4826      
199           5.94177       15.3658       72.7158      
200           5.94005       15.5111       72.9409      
201           5.93814       15.6516       73.1615      
202           5.93587       15.7862       73.3772      
203           5.93387       15.9156       73.5929      
204           5.932         16.0374       73.8074      
205           5.9292        16.1467       74.0134      
206           5.92472       16.239        74.2025      
207           5.92079       16.3127       74.3739      
208           5.91759       16.3692       74.5335      
209           5.91506       16.4111       74.6883      
210           5.91228       16.4391       74.8414      
211           5.9089        16.4509       74.9889      
212           5.90567       16.4439       75.1223      
213           5.90226       16.4172       75.2362      
214           5.89913       16.3748       75.3387      
215           5.89648       16.3216       75.4397      
216           5.8926        16.2595       75.5394      
217           5.88961       16.188        75.6306      
218           5.88508       16.1064       75.7072      
219           5.88172       16.0166       75.7708      
220           5.87871       15.9227       75.8293      
221           5.87571       15.8279       75.8872      
222           5.87251       15.7372       75.9541      
223           5.86947       15.6525       76.0297      
224           5.8666        15.5755       76.1109      
225           5.86415       15.5066       76.1956      
226           5.86082       15.4467       76.2751      
227           5.85844       15.3943       76.3475      
228           5.85629       15.3475       76.4208      
229           5.85465       15.3096       76.5071      
230           5.85356       15.2875       76.6158      
231           5.85279       15.2848       76.7436      
232           5.852         15.2963       76.8718      
233           5.85109       15.3141       76.9889      
234           5.85028       15.3342       77.0982      
235           5.84961       15.3875       77.3186      
236           5.84945       15.4049       77.3716      
237           5.8494        15.429        77.4342      
238           5.84641       15.4898       77.6264      
239           5.84597       15.5477       77.7931      
240           5.84824       15.5777       77.8483      
241           5.85209       15.615        77.9387      
242           5.8542        15.666        78.0947      
243           5.85371       15.7128       78.2405      
244           5.85095       15.7517       78.3567      
245           5.85053       15.7723       78.4173      
246           5.85383       15.7858       78.4743      
247           5.85635       15.7989       78.5503      
248           5.85899       15.8081       78.6286      
249           5.86119       15.812        78.6998      
250           5.86287       15.8056       78.7476      
251           5.86466       15.7927       78.7816      
252           5.86666       15.7739       78.8086      
253           5.86883       15.7506       78.8329      
254           5.8715        15.7261       78.8598      
255           5.87408       15.6963       78.8791      
256           5.8762        15.6603       78.8863      
257           5.87863       15.6243       78.8922      
258           5.88136       15.589        78.8993      
259           5.88432       15.5543       78.9079      
260           5.88743       15.5201       78.9173      
261           5.89062       15.4867       78.9272      
262           5.89382       15.4548       78.9379      
263           5.89695       15.4254       78.9505      
264           5.89985       15.3993       78.9662      
265           5.90258       15.3765       78.9854      
266           5.90534       15.3568       79.0077      
267           5.90828       15.34         79.0327      
268           5.91134       15.3263       79.0612      
269           5.91437       15.3158       79.0938      
270           5.91722       15.3084       79.1308      
271           5.91992       15.3035       79.1704      
272           5.9226        15.2997       79.2086      
273           5.9253        15.2966       79.2442      
274           5.92791       15.2946       79.2798      
275           5.93037       15.2946       79.3207      
276           5.93277       15.2968       79.3662      
277           5.93514       15.2998       79.4115      
278           5.93736       15.3026       79.4549      
279           5.93967       15.3035       79.4928      
280           5.94209       15.302        79.5239      
281           5.94429       15.2991       79.5512      
282           5.94613       15.2959       79.578       
283           5.94771       15.2922       79.6043      
284           5.94917       15.2878       79.6295      
285           5.95067       15.2824       79.653       
286           5.95231       15.2753       79.6732      
287           5.95402       15.2664       79.689       
288           5.95567       15.2557       79.7003      
289           5.95713       15.2436       79.7079      
290           5.95838       15.2307       79.7133      
291           5.95953       15.2173       79.7174      
292           5.96072       15.2036       79.721       
293           5.962         15.1897       79.7243      
294           5.96331       15.1758       79.7273      
295           5.96453       15.1618       79.7294      
296           5.96561       15.1477       79.7298      
297           5.96652       15.1338       79.7286      
298           5.96731       15.1203       79.7271      
299           5.96812       15.1076       79.7263      
300           5.96902       15.0958       79.7269      
301           5.97          15.0853       79.7292      
302           5.971         15.0758       79.7326      
303           5.97197       15.0673       79.7365      
304           5.97292       15.0595       79.7399      
305           5.97385       15.0524       79.7428      
306           5.97474       15.046        79.7458      
307           5.97559       15.0403       79.7496      
308           5.9764        15.0357       79.7549      
309           5.97724       15.0319       79.7615      
310           5.97812       15.0289       79.7679      
311           5.97899       15.0261       79.7734      
312           5.97976       15.0232       79.7775      
313           5.98044       15.0204       79.7809      
314           5.98111       15.0178       79.7844      
315           5.98186       15.0155       79.7881      
316           5.98274       15.0136       79.7916      
317           5.98368       15.0116       79.7941      
318           5.98458       15.0094       79.7951      
319           5.98537       15.0068       79.7951      
320           5.98609       15.004        79.794       
321           5.98681       15.0012       79.7923      
322           5.9876        14.9984       79.7901      
323           5.98846       14.9956       79.7875      
324           5.98933       14.9925       79.7838      
325           5.99019       14.9892       79.779       
326           5.99102       14.9856       79.7733      
327           5.99214       14.982        79.7673      
328           5.99285       14.9783       79.7609      
329           5.99361       14.9748       79.7543      
330           5.99446       14.9712       79.7473      
331           5.99538       14.9677       79.7401      
332           5.99667       14.9641       79.7325      
333           5.99766       14.9606       79.7249      
334           5.99851       14.9573       79.7174      
335           5.99923       14.9542       79.7102      
336           5.99995       14.9512       79.7029      
337           6.00076       14.9484       79.6956      
338           6.00209       14.9455       79.6881      
339           6.00326       14.9427       79.6809      
340           6.00434       14.9401       79.6739      
341           6.00562       14.9377       79.6675      
342           6.00658       14.9354       79.6611      
343           6.00748       14.9332       79.6548      
344           6.00838       14.9309       79.6482      
345           6.00968       14.9285       79.6417      
346           6.01082       14.9261       79.6353      
347           6.01193       14.9238       79.6292      
348           6.01329       14.9215       79.6233      
349           6.01436       14.9192       79.6174      
350           6.01538       14.9168       79.6114      
351           6.01666       14.9144       79.6054      
352           6.01777       14.9118       79.5993      
353           6.01914       14.9092       79.5933      
354           6.02029       14.9066       79.5873      
355           6.02157       14.904        79.5814      
356           6.02289       14.9003       79.5737      
357           6.02457       14.8966       79.5659      
358           6.02586       14.8936       79.5595      
359           6.02683       14.8924       79.5556      
360           6.02822       14.8884       79.5479      
361           6.02954       14.8847       79.5406      
362           6.03093       14.8817       79.5353      
363           6.03196       14.8802       79.5326      
364           6.03386       14.8757       79.5219      
365           6.03541       14.8714       79.5128      
366           6.0366        14.8681       79.5071      
367           6.03745       14.8665       79.5055      
368           6.03875       14.8623       79.4973      
369           6.04029       14.8582       79.4889      
370           6.04152       14.8556       79.4844      
371           6.04339       14.8512       79.4759      
372           6.04465       14.8483       79.4709      
373           6.04615       14.8441       79.4635      
374           6.04715       14.8415       79.4597      
375           6.04855       14.8376       79.4527      
376           6.04965       14.835        79.4488      
377           6.05139       14.8307       79.4406      
378           6.05259       14.828        79.4362      
379           6.05393       14.8245       79.43        
380           6.05589       14.8197       79.4209      
381           6.05698       14.8173       79.4179      
382           6.05812       14.8148       79.4142      
383           6.05978       14.8104       79.4056      
384           6.0609        14.8078       79.4016      
385           6.06208       14.8048       79.3964      
386           6.06405       14.7993       79.3862      
387           6.06532       14.7965       79.3828      
388           6.06653       14.7937       79.379       
389           6.06828       14.7896       79.3704      
390           6.06929       14.7873       79.367       
391           6.07042       14.7845       79.3623      
392           6.07214       14.7795       79.3519      
393           6.07324       14.7767       79.348       
394           6.07438       14.7736       79.3436      
395           6.07605       14.7689       79.3343      
396           6.07712       14.7663       79.3306      
397           6.07866       14.7623       79.323       
398           6.07969       14.7597       79.3197      
399           6.08125       14.7553       79.3114      
400           6.08231       14.7523       79.3074      
401           6.08386       14.7476       79.2982      
402           6.08488       14.7447       79.2943      
403           6.0864        14.7402       79.2858      
404           6.08759       14.737        79.28        
405           6.08835       14.735        79.2784      
406           6.08977       14.7312       79.2709      
407           6.09125       14.727        79.263       
408           6.09225       14.7243       79.2594      
409           6.09375       14.7199       79.2505      
410           6.09469       14.7176       79.247       
411           6.09623       14.7137       79.2376      
412           6.09718       14.7117       79.2342      
413           6.09827       14.7096       79.2297      
414           6.10011       14.7053       79.2178      
415           6.1011        14.7036       79.214       
416           6.10209       14.702        79.2099      
417           6.10376       14.6983       79.1982      
418           6.10465       14.6972       79.1948      
419           6.1056        14.696        79.1909      
420           6.1072        14.6927       79.1792      
421           6.10807       14.6918       79.1758      
422           6.10901       14.6908       79.1718      
423           6.11078       14.6873       79.1595      
424           6.11165       14.6865       79.1563      
425           6.11258       14.6855       79.1527      
426           6.11368       14.6839       79.1472      
427           6.11565       14.6794       79.1309      
428           6.11641       14.6784       79.1276      
429           6.11716       14.6773       79.1246      
430           6.11809       14.6758       79.1204      
431           6.11925       14.6737       79.1138      
432           6.12133       14.6685       79.0952      
433           6.12201       14.6674       79.0919      
434           6.12269       14.6663       79.089       
435           6.12351       14.6651       79.0857      
436           6.12461       14.6634       79.0798      
437           6.12598       14.6609       79.0705      
438           6.12749       14.6577       79.059       
439           6.12867       14.655        79.0497      
440           6.12943       14.6533       79.0442      
441           6.1302        14.6519       79.04        
442           6.13111       14.6505       79.0348      
443           6.13222       14.6489       79.0274      
444           6.13352       14.6469       79.0175      
445           6.13476       14.6446       79.0079      
446           6.1357        14.6428       79.0012      
447           6.13655       14.6413       78.9962      
448           6.13753       14.6399       78.9905      
449           6.13866       14.6387       78.9831      
450           6.13983       14.6372       78.9737      
451           6.1407        14.6356       78.9655      
452           6.14154       14.6343       78.9595      
453           6.14245       14.633        78.954       
454           6.14361       14.6317       78.9473      
455           6.1449        14.6303       78.9386      
456           6.14587       14.629        78.9294      
457           6.14668       14.6279       78.923       
458           6.14742       14.627        78.9176      
459           6.14801       14.6266       78.9114      
460           6.14884       14.6262       78.9038      
461           6.15009       14.625        78.8947      
462           6.15147       14.6233       78.8852      
463           6.15227       14.6223       78.8792      
464           6.15279       14.6219       78.8752      
465           6.15351       14.622        78.8708      
466           6.15453       14.6218       78.8634      
467           6.15559       14.6208       78.8538      
468           6.15663       14.6195       78.8455      
469           6.15728       14.6188       78.8402      
470           6.15815       14.6185       78.8352      
471           6.15918       14.6185       78.8291      
472           6.1601        14.6184       78.8213      
473           6.16102       14.6179       78.8145      
474           6.16167       14.6174       78.8091      
475           6.1625        14.6171       78.8042      
476           6.16353       14.6173       78.7985      
477           6.16438       14.6174       78.7927      
478           6.16529       14.6173       78.787       
479           6.16601       14.6171       78.782       
480           6.16677       14.617        78.7766      
481           6.16787       14.6171       78.7714      
482           6.16872       14.6173       78.7661      
483           6.16944       14.6174       78.7614      
484           6.17034       14.6175       78.7567      
485           6.17113       14.6177       78.752       
486           6.17187       14.6178       78.7469      
487           6.17285       14.6179       78.7421      
488           6.17365       14.6179       78.7373      
489           6.17438       14.6181       78.7327      
490           6.17535       14.6182       78.7281      
491           6.17613       14.6184       78.7236      
492           6.17684       14.6185       78.7191      
493           6.17771       14.6187       78.7147      
494           6.17846       14.6188       78.7104      
495           6.17916       14.6191       78.7062      
496           6.18014       14.6193       78.702       
497           6.18093       14.6195       78.6979      
498           6.18164       14.6197       78.6937      
499           6.18251       14.62         78.6898      
500           6.18326       14.6203       78.6857      
501           6.18394       14.6207       78.6819      
502           6.18481       14.621        78.6781      
503           6.18555       14.6214       78.6744      
504           6.18623       14.6219       78.6708      
505           6.18716       14.6224       78.6674      
506           6.18792       14.6229       78.6639      
507           6.1886        14.6235       78.6607      
508           6.18943       14.624        78.6575      
509           6.19014       14.6246       78.6545      
510           6.1908        14.6253       78.6513      
511           6.19164       14.6259       78.6483      
512           6.19236       14.6265       78.6453      
513           6.19302       14.6271       78.6423      
514           6.1939        14.6278       78.6394      
515           6.19462       14.6284       78.6364      
516           6.19528       14.629        78.6334      
517           6.19611       14.6297       78.6305      
518           6.19681       14.6303       78.6276      
519           6.19746       14.6309       78.6248      
520           6.19825       14.6315       78.6219      
521           6.19893       14.6321       78.619       
522           6.19956       14.6327       78.616       
523           6.20042       14.6333       78.6133      
524           6.20114       14.634        78.6105      
525           6.20178       14.6346       78.6077      
526           6.20256       14.6352       78.6049      
527           6.20321       14.6358       78.6022      
528           6.20384       14.6364       78.5995      
529           6.20463       14.6371       78.5968      
530           6.2053        14.6377       78.5941      
531           6.20592       14.6383       78.5914      
532           6.20674       14.6389       78.5887      