# Probe 0 (-1 0 0)
# Probe 1 (1 0 0)
# Probe 2 (1.7 0 0)
# Time        0             1             2            
0             (0 0 0)       (0 0 0)       (0 0 0)      
1             (6.69218 0.0255666 -0.0949099) (2.06466 -0.00938592 -0.0206631) (4.44035 -0.015835 0.0512996)
2             (17.9893 0.0399492 -0.119375) (9.7152 -0.0424656 -0.0772594) (14.1426 -0.0394852 0.147894)
3             (31.0343 0.0363675 -0.0256811) (14.4854 -0.0563936 -0.0791201) (23.4502 -0.0587047 0.271184)
4             (37.731 0.0216712 0.135371) (16.7059 -0.0395773 -0.022752) (28.3497 -0.0895032 0.364426)
5             (36.246 -0.00186714 0.294549) (15.7307 -0.019092 0.00696049) (26.7227 -0.151152 0.359077)
6             (28.9326 -0.0143972 0.343353) (13.983 -0.0160521 -0.0604977) (22.2308 -0.185203 0.241077)
7             (23.0681 -0.00405926 0.221663) (13.3436 -0.0305138 -0.159714) (18.7038 -0.15469 0.0988245)
8             (23.9288 0.0163477 0.0604821) (14.3448 -0.0486844 -0.209656) (19.3358 -0.0838642 0.0496357)
9             (28.4067 0.0294239 -0.0083463) (16.0211 -0.058807 -0.204039) (22.7731 -0.0300765 0.0746548)
10            (32.1312 0.0300449 0.0297562) (17.1133 -0.0600704 -0.190168) (25.8753 -0.0252597 0.0941394)
11            (32.0559 0.0225089 0.0961589) (17.1333 -0.0584756 -0.196992) (26.4874 -0.0435149 0.0673324)
12            (29.9696 0.0151055 0.123591) (16.5229 -0.0603122 -0.223051) (25.4395 -0.0665343 0.0236496)
13            (28.2615 0.0129833 0.10313) (15.8016 -0.0656354 -0.248824) (24.2303 -0.0692558 0.00872706)
14            (28.5598 0.0131679 0.0772103) (15.4494 -0.0713777 -0.264231) (24.2792 -0.0520406 0.038605)
15            (30.0313 0.0115963 0.0797485) (15.4684 -0.0740344 -0.269505) (25.4407 -0.0300679 0.0883488)
16            (31.339 0.00727823 0.10952) (15.635 -0.0729724 -0.270976) (26.8057 -0.0193835 0.125473)
17            (31.4537 0.0034712 0.138881) (15.6466 -0.0698289 -0.270643) (27.4627 -0.0192494 0.139919)
18            (30.8917 0.00235344 0.148919) (15.4383 -0.0668245 -0.267795) (27.4547 -0.0225989 0.144741)
19            (30.4127 0.00401307 0.139033) (15.1341 -0.0640867 -0.260488) (27.2189 -0.0236868 0.154362)
20            (30.4862 0.00582281 0.125626) (14.9627 -0.0602482 -0.246129) (27.2295 -0.022295 0.176842)
21            (30.9569 0.00479241 0.120301) (15.0651 -0.0540195 -0.225335) (27.5484 -0.0214415 0.205333)
22            (31.3961 0.000785545 0.124138) (15.408 -0.045447 -0.200147) (27.941 -0.0236455 0.229028)
23            (31.5057 -0.00432396 0.127817) (15.8462 -0.0358754 -0.174313) (28.1243 -0.0280626 0.239877)
24            (31.3373 -0.00728076 0.122013) (16.2592 -0.0266868 -0.15142) (28.0088 -0.0320181 0.24067)
25            (31.1367 -0.00871217 0.10547) (16.6351 -0.0183864 -0.132564) (27.7255 -0.0337686 0.23816)
26            (31.0794 -0.00898658 0.0842627) (17.0358 -0.010659 -0.115626) (27.4632 -0.0332389 0.237685)
27            (31.1713 -0.00895778 0.0648121) (17.5386 -0.00316366 -0.0981644) (27.3328 -0.0319325 0.240497)
28            (31.2857 -0.00962276 0.0498911) (18.1696 0.00460618 -0.0796231) (27.3181 -0.0316869 0.243675)
29            (31.3051 -0.0109679 0.0379073) (18.8695 0.0111046 -0.0618748) (27.2814 -0.0331498 0.241162)
30            (31.2126 -0.012543 0.0261518) (19.5774 0.0174394 -0.0446302) (27.1255 -0.0357621 0.229221)
31            (31.0573 -0.0149461 0.0128909) (20.2595 0.0211695 -0.0340354) (26.8648 -0.0383368 0.209366)
32            (30.9453 -0.0180182 -0.00134005) (20.9 0.0214247 -0.0299847) (26.5883 -0.040368 0.184841)
33            (30.8874 -0.0206978 -0.0140136) (21.5156 0.0195533 -0.0276069) (26.3542 -0.0416979 0.160903)
34            (30.8714 -0.0219058 -0.0226849) (22.1235 0.0166226 -0.0229054) (26.2002 -0.0429206 0.140081)
35            (30.8532 -0.0218018 -0.0263475) (22.7253 0.0130306 -0.0152601) (26.1264 -0.0446408 0.121553)
36            (30.8024 -0.0211434 -0.026115) (23.3057 0.00912337 -0.00547445) (26.1066 -0.0467974 0.103365)
37            (30.7226 -0.0204378 -0.0238346) (23.844 0.00546375 0.00611434) (26.1115 -0.0486341 0.0846622)
38            (30.6327 -0.0197021 -0.0204119) (24.3238 0.00228705 0.0197858) (26.1232 -0.0491321 0.0670321)
39            (30.56 -0.0186272 -0.0167942) (24.7443 -0.000196878 0.0354003) (26.1539 -0.0477378 0.0530696)
40            (30.5128 -0.0173121 -0.0133138) (25.1159 -0.00213071 0.0521001) (26.2287 -0.0444888 0.0434512)
41            (30.4804 -0.0161001 -0.00961708) (25.4472 -0.00369098 0.0694406) (26.3624 -0.039916 0.0372402)
42            (30.4487 -0.0150762 -0.00567048) (25.7432 -0.00467313 0.0872692) (26.5521 -0.0347276 0.0329692)
43            (30.4088 -0.0142019 -0.00147967) (26.0076 -0.00473938 0.105166) (26.7765 -0.0293571 0.0292712)
44            (30.3608 -0.0134802 0.00287828) (26.243 -0.00376701 0.122704) (27.0162 -0.0237023 0.0261168)
45            (30.3138 -0.0128441 0.00691475) (26.4573 -0.00197732 0.139229) (27.2577 -0.0174756 0.0236389)
46            (30.2732 -0.0121518 0.00978199) (26.6571 0.000332549 0.154328) (27.4971 -0.010841 0.022042)
47            (30.2411 -0.0114121 0.0110624) (26.8496 0.00304291 0.167786) (27.7357 -0.00495864 0.0215345)
48            (30.2135 -0.0108096 0.0114352) (27.044 0.00603269 0.17875) (27.9768 -0.000638574 0.0221706)
49            (30.1865 -0.0104188 0.0117376) (27.246 0.0091791 0.186251) (28.2182 0.00225217 0.0240771)
50            (30.1589 -0.0101734 0.0122504) (27.4586 0.0124773 0.190051) (28.4407 0.00333504 0.0278922)
51            (30.1321 -0.00998821 0.0126536) (27.6859 0.0158772 0.190787) (28.6235 0.00307506 0.0343295)
52            (30.1089 -0.00982946 0.0123608) (27.929 0.0194996 0.190194) (28.7567 0.0020829 0.0431401)
53            (30.0884 -0.00976469 0.011157) (28.1893 0.0230622 0.187764) (28.8399 0.000713315 0.0537791)
54            (30.0687 -0.0098581 0.00924668) (28.4632 0.0263646 0.184419) (28.8767 -0.000788567 0.065725)
55            (30.0497 -0.0101204 0.00699867) (28.7467 0.0291368 0.180342) (28.8704 -0.00192657 0.0792043)
56            (30.0326 -0.0105278 0.00480902) (29.0337 0.0310575 0.175505) (28.8271 -0.0019267 0.0941599)
57            (30.0183 -0.0110198 0.00281913) (29.3152 0.0318617 0.170017) (28.7583 -0.000915484 0.109716)
58            (30.0074 -0.0115463 0.00095404) (29.5845 0.0314747 0.163993) (28.6576 0.000455244 0.124875)
59            (29.9996 -0.0120846 -0.000881088) (29.8385 0.0298193 0.157381) (28.5306 0.00214709 0.139196)
60            (29.994 -0.0126319 -0.00267709) (30.0718 0.0267437 0.149839) (28.3831 0.00432821 0.152227)
61            (29.9893 -0.0131876 -0.00429444) (30.277 0.0222083 0.140994) (28.2184 0.00689037 0.163681)
62            (29.9853 -0.013729 -0.0055571) (30.4478 0.0164651 0.13042) (28.0404 0.00973632 0.173489)
63            (29.982 -0.014248 -0.00639569) (30.583 0.0103552 0.117744) (27.8531 0.0126388 0.181653)
64            (29.9797 -0.0147811 -0.00708244) (30.6867 0.00498451 0.10284) (27.6595 0.0153871 0.188113)
65            (29.9792 -0.0153365 -0.00753698) (30.7656 0.00123206 0.0858056) (27.4627 0.0176479 0.19274)
66            (29.9807 -0.0158583 -0.00773802) (30.8223 -0.000878153 0.0659625) (27.2729 0.0191001 0.195554)
67            (29.9835 -0.0162707 -0.00761665) (30.8546 -0.00224885 0.0437337) (27.1059 0.0197598 0.197655)
68            (29.9868 -0.0165349 -0.0070986) (30.8478 -0.00350403 0.0217602) (26.9689 0.0193667 0.196999)
69            (29.9904 -0.0166577 -0.00616276) (30.7869 -0.00603144 0.0026545) (26.8614 0.0181257 0.194006)
70            (29.9934 -0.016636 -0.00494213) (30.67 -0.00925012 -0.0129505) (26.7865 0.0166736 0.189266)
71            (29.9953 -0.016466 -0.00364178) (30.5168 -0.0109967 -0.0263167) (26.7472 0.0158229 0.183554)
72            (29.996 -0.0161493 -0.00243723) (30.3649 -0.0109159 -0.0403464) (26.7489 0.0164029 0.177358)
73            (29.9954 -0.0157013 -0.00143437) (30.232 -0.0100777 -0.0511323) (26.7969 0.0189376 0.171379)
74            (29.9932 -0.0151503 -0.000704901) (30.1244 -0.00859085 -0.0550479) (26.8963 0.02355 0.166261)
75            (29.9892 -0.0145286 -0.000331122) (30.0367 -0.00678865 -0.052244) (27.0467 0.0294496 0.162352)
76            (29.9831 -0.013869 -0.000409529) (29.9515 -0.00519329 -0.0456589) (27.238 0.0349979 0.159363)
77            (29.9751 -0.0132019 -0.000991207) (29.8571 -0.00405542 -0.0380777) (27.4529 0.037639 0.156759)
78            (29.9654 -0.0125464 -0.0020338) (29.7557 -0.00349819 -0.0315919) (27.6715 0.0362748 0.155107)
79            (29.9545 -0.0118996 -0.00335416) (29.6605 -0.00327838 -0.026221) (27.8887 0.0322184 0.154859)
80            (29.9431 -0.0112474 -0.00485728) (29.5872 -0.00316174 -0.0214804) (28.0987 0.0275068 0.155445)
81            (29.932 -0.0105712 -0.00623064) (29.5447 -0.00253023 -0.0155323) (28.2913 0.0233989 0.156207)
82            (29.9218 -0.00985497 -0.00725359) (29.5321 -0.00153288 -0.00814536) (28.4572 0.0200613 0.157064)
83            (29.913 -0.00908872 -0.00780765) (29.5353 -0.000445617 0.00113499) (28.591 0.0173117 0.158214)
84            (29.9064 -0.00828062 -0.00780594) (29.5408 0.00113011 0.0107472) (28.6905 0.015072 0.159624)
85            (29.9023 -0.00744156 -0.00722056) (29.5368 0.00223764 0.0222541) (28.7541 0.0132397 0.160868)
86            (29.901 -0.00659266 -0.00609588) (29.5191 0.0030231 0.0359013) (28.7796 0.0116417 0.161398)
87            (29.9023 -0.00576154 -0.00453939) (29.4961 0.00349826 0.0503842) (28.767 0.0102045 0.160829)
88            (29.9059 -0.0049761 -0.00269422) (29.4815 0.00380674 0.0646788) (28.7185 0.00897862 0.158903)
89            (29.9114 -0.00426383 -0.000716146) (29.4865 0.00411021 0.0781924) (28.6383 0.00802469 0.155357)
90            (29.9183 -0.00364849 0.00124172) (29.5136 0.00446142 0.0906664) (28.5323 0.00730948 0.149706)
91            (29.9261 -0.00314463 0.00303695) (29.556 0.00481703 0.101724) (28.4053 0.00663719 0.140931)
92            (29.9343 -0.0027571 0.00455286) (29.602 0.00511577 0.110829) (28.2628 0.00596508 0.127836)
93            (29.9426 -0.00248543 0.00571737) (29.6404 0.00533129 0.117219) (28.1117 0.00554127 0.110602)
94            (29.9506 -0.00232791 0.00650647) (29.665 0.00544225 0.120605) (27.9578 0.00555227 0.0910213)
95            (29.9581 -0.00228111 0.00693873) (29.6755 0.00543456 0.12043) (27.8049 0.00593268 0.0709791)
96            (29.9648 -0.00233496 0.00706586) (29.6766 0.00529382 0.116282) (27.6555 0.00644064 0.0512084)
97            (29.9707 -0.00248422 0.00696154) (29.6745 0.0050542 0.107721) (27.5118 0.00685387 0.0315052)
98            (29.9758 -0.00272437 0.00670592) (29.6746 0.00463997 0.0947858) (27.3758 0.00709949 0.0115008)
99            (29.9801 -0.0030497 0.00637438) (29.6796 0.00398575 0.0779673) (27.2501 0.00723996 -0.00897251)
100           (29.9838 -0.0034528 0.00603449) (29.6887 0.00314958 0.0578682) (27.1376 0.00741136 -0.0296666)
101           (29.9869 -0.00392285 0.00574101) (29.6975 0.0022804 0.036158) (27.0408 0.00776467 -0.0499048)
102           (29.9896 -0.00444629 0.00553337) (29.7032 0.00136936 0.0133115) (26.9614 0.00838356 -0.0686079)
103           (29.9918 -0.00500705 0.00543413) (29.7018 0.000567967 -0.00844924) (26.8981 0.00924406 -0.0845952)
104           (29.9937 -0.00558698 0.00544788) (29.692 -0.000168133 -0.027472) (26.8483 0.0102416 -0.0969142)
105           (29.9953 -0.00616509 0.00556021) (29.6756 -0.000647002 -0.0427585) (26.8118 0.0112536 -0.104957)
106           (29.9966 -0.00671748 0.00573489) (29.6568 -0.000754884 -0.0539763) (26.7893 0.0121968 -0.108481)
107           (29.9976 -0.007224 0.00593549) (29.6398 -0.000619422 -0.0611314) (26.7803 0.0130332 -0.107423)
108           (29.9982 -0.0076661 0.00612755) (29.6278 -0.000469911 -0.0641952) (26.7852 0.0137742 -0.101543)
109           (29.9984 -0.00802783 0.00627852) (29.6223 -0.000376608 -0.0632771) (26.805 0.0144586 -0.0905851)
110           (29.9982 -0.00829805 0.00635916) (29.6234 -0.00036784 -0.0587233) (26.839 0.0150924 -0.0747163)
111           (29.9978 -0.00847177 0.00634848) (29.6296 -0.000384892 -0.0513415) (26.8843 0.0156313 -0.0547175)
112           (29.9972 -0.00855048 0.00623776) (29.6392 -0.00035323 -0.0422679) (26.9363 0.0160052 -0.0318402)
113           (29.9963 -0.00854214 0.0060326) (29.6504 -0.000246973 -0.0325572) (26.9896 0.0161753 -0.00759652)
114           (29.9954 -0.0084604 0.00575204) (29.6611 -6.43371e-05 -0.0230735) (27.0393 0.0161468 0.0164391)
115           (29.9942 -0.0083229 0.00542566) (29.6698 0.000177423 -0.0143652) (27.0825 0.0159689 0.0389734)
116           (29.993 -0.00814834 0.00508316) (29.676 0.000440924 -0.00664511) (27.1182 0.0157111 0.0591054)
117           (29.9919 -0.00795626 0.00475467) (29.6796 0.000682901 -5.84828e-05) (27.1472 0.0154319 0.0760494)
118           (29.9909 -0.00776171 0.00446275) (29.6806 0.000865113 0.00530414) (27.1706 0.0151526 0.0889388)
119           (29.9901 -0.00757566 0.00422002) (29.6794 0.00101031 0.00943486) (27.1891 0.0148529 0.0969395)
120           (29.9896 -0.00740871 0.00404127) (29.6762 0.00113174 0.0124678) (27.2024 0.0144929 0.0995947)
121           (29.9892 -0.00726707 0.00393679) (29.6716 0.00125669 0.0146506) (27.2103 0.014037 0.0969274)
122           (29.9891 -0.00715266 0.00390904) (29.6661 0.00140909 0.0162394) (27.2124 0.013475 0.0893167)
123           (29.9891 -0.0070637 0.00395119) (29.6605 0.00160365 0.0174368) (27.2095 0.0128383 0.0775189)
124           (29.9892 -0.00699599 0.00404708) (29.6562 0.00184242 0.0183395) (27.2052 0.0121918 0.0628187)
125           (29.9894 -0.00694632 0.00417785) (29.6545 0.00209657 0.0189065) (27.2037 0.0115875 0.0465714)
126           (29.9898 -0.00691203 0.00433085) (29.6551 0.00236284 0.0190985) (27.2066 0.0110406 0.0297406)
127           (29.9904 -0.00688659 0.00448893) (29.6577 0.00263759 0.0189279) (27.2144 0.0106062 0.0130065)
128           (29.9912 -0.00686454 0.00463441) (29.6619 0.00291126 0.0186103) (27.2258 0.0102725 -0.00297773)
129           (29.992 -0.00684203 0.0047512) (29.6679 0.00318878 0.0183786) (27.2401 0.0100263 -0.0174471)
130           (29.9928 -0.00681802 0.00483291) (29.6762 0.00346919 0.0183583) (27.2565 0.00985784 -0.0300246)
131           (29.9935 -0.00679338 0.00488252) (29.6862 0.00374592 0.0185527) (27.2736 0.00974457 -0.040884)
132           (29.9941 -0.00676927 0.00490489) (29.6975 0.00401124 0.0189059) (27.2904 0.00966055 -0.0503718)
133           (29.9947 -0.00674515 0.00489924) (29.7096 0.00425902 0.0193576) (27.3066 0.00959571 -0.0586632)
134           (29.9952 -0.00671861 0.00485848) (29.7221 0.00448089 0.0198631) (27.3224 0.00955708 -0.0657769)
135           (29.9956 -0.00668854 0.00477536) (29.7344 0.00467041 0.0203832) (27.3373 0.00955246 -0.0717328)
136           (29.9959 -0.00665724 0.00465546) (29.746 0.00482584 0.0208522) (27.3512 0.0095857 -0.0765246)
137           (29.9964 -0.00662564 0.00450957) (29.757 0.00494525 0.0211821) (27.3651 0.00966788 -0.0800836)
138           (29.9969 -0.00659356 0.00434743) (29.7673 0.00502701 0.0213101) (27.3798 0.00980399 -0.082463)
139           (29.9974 -0.00656012 0.00417326) (29.7767 0.00507456 0.0212386) (27.3952 0.0099728 -0.0838972)
140           (29.998 -0.00652505 0.00398735) (29.785 0.00509293 0.0209812) (27.4109 0.0101501 -0.0845177)
141           (29.9986 -0.00648897 0.0037905) (29.7925 0.00508304 0.0205281) (27.4272 0.0103285 -0.0843622)
142           (29.9992 -0.0064538 0.00358838) (29.7991 0.00504277 0.0198572) (27.4442 0.0105076 -0.0835077)
143           (29.9999 -0.00642106 0.00339068) (29.8049 0.00497102 0.0189785) (27.4618 0.0106812 -0.0821214)
144           (30.0008 -0.00638945 0.00320152) (29.8095 0.00486951 0.0179346) (27.4802 0.0108418 -0.0803727)
145           (30.0018 -0.00635759 0.00301992) (29.8129 0.00473755 0.0167693) (27.5 0.0109864 -0.0783712)
146           (30.0029 -0.00632522 0.00284571) (29.8152 0.00457776 0.015507) (27.5217 0.0111105 -0.0761212)
147           (30.0041 -0.00629244 0.0026823) (29.8163 0.00439318 0.0141503) (27.5455 0.011213 -0.0734943)
148           (30.0054 -0.00626011 0.00253557) (29.8162 0.0041891 0.0126932) (27.5711 0.0112882 -0.070484)
149           (30.0067 -0.00622875 0.00240943) (29.8148 0.00397573 0.011143) (27.5982 0.011329 -0.06717)
150           (30.0082 -0.00619846 0.00230338) (29.8123 0.00376243 0.00952544) (27.6262 0.0113319 -0.0636492)
151           (30.0097 -0.00616998 0.00221543) (29.8085 0.00355759 0.00788313) (27.6545 0.0112888 -0.0600059)
152           (30.0113 -0.00614327 0.00214342) (29.8038 0.0033659 0.0062647) (27.6828 0.0111941 -0.0562395)
153           (30.0131 -0.00611756 0.00208503) (29.7983 0.00318847 0.00471347) (27.711 0.0110467 -0.0523237)
154           (30.0148 -0.0060929 0.00204098) (29.792 0.00302608 0.00326308) (27.739 0.0108472 -0.0482605)
155           (30.0166 -0.00606965 0.00201327) (29.7853 0.00287913 0.00193244) (27.7667 0.010596 -0.044096)
156           (30.0184 -0.00604806 0.00200236) (29.7782 0.00274936 0.000727901) (27.794 0.0102948 -0.0399076)
157           (30.0202 -0.00602814 0.00200591) (29.771 0.00263891 -0.000351663) (27.8207 0.00994834 -0.0357782)
158           (30.0221 -0.00600997 0.00202001) (29.7637 0.00255081 -0.00131904) (27.8464 0.00956541 -0.0317799)
159           (30.024 -0.00599345 0.00204144) (29.7567 0.00248679 -0.00218541) (27.8708 0.00915674 -0.0279689)
160           (30.0259 -0.0059785 0.00206839) (29.75 0.0024496 -0.00295499) (27.8936 0.00873394 -0.0243891)
161           (30.0278 -0.00596534 0.0021006) (29.7438 0.00244139 -0.00363387) (27.9146 0.00830346 -0.0210709)
162           (30.0297 -0.00595389 0.002138) (29.7382 0.00246152 -0.00422734) (27.9339 0.00786931 -0.0180491)
163           (30.0316 -0.00594407 0.0021799) (29.7335 0.00250927 -0.00474306) (27.9511 0.00743297 -0.0153569)
164           (30.0335 -0.00593583 0.0022249) (29.7297 0.00258038 -0.00519383) (27.9664 0.00699492 -0.0130127)
165           (30.0353 -0.00592909 0.00227127) (29.7268 0.0026724 -0.00559642) (27.9794 0.00655688 -0.0110189)
166           (30.0371 -0.00592377 0.00231753) (29.7248 0.00277287 -0.0059629) (27.9903 0.00612355 -0.00936957)
167           (30.0388 -0.00591982 0.00236286) (29.7238 0.00287673 -0.00630302) (27.9988 0.0057027 -0.00805864)
168           (30.0406 -0.00591721 0.00240714) (29.7237 0.00297972 -0.00661904) (28.0049 0.00530377 -0.00708393)
169           (30.0423 -0.00591592 0.00245023) (29.7244 0.00307996 -0.0069146) (28.0088 0.00493567 -0.00644255)
170           (30.0439 -0.00591584 0.0024914) (29.7259 0.00317717 -0.00719448) (28.0103 0.00460493 -0.00612503)
171           (30.0456 -0.00591689 0.00252973) (29.7281 0.0032715 -0.00746402) (28.0098 0.00431493 -0.00610992)
172           (30.0471 -0.00591899 0.00256458) (29.7309 0.00336296 -0.00772708) (28.0071 0.00406646 -0.00636765)
173           (30.0487 -0.00592206 0.00259573) (29.7341 0.00345128 -0.0079878) (28.0025 0.00385866 -0.00686866)
174           (30.0502 -0.00592603 0.0026232) (29.7377 0.00353588 -0.00825055) (27.9961 0.0036895 -0.00758847)
175           (30.0516 -0.00593094 0.00264722) (29.7416 0.00361634 -0.00851833) (27.9882 0.00355662 -0.0085041)
176           (30.053 -0.00593676 0.00266774) (29.7455 0.00369273 -0.00879247) (27.9789 0.00345808 -0.00959153)
177           (30.0543 -0.00594336 0.0026846) (29.7495 0.00376547 -0.00907407) (27.9684 0.00339302 -0.0108253)
178           (30.0556 -0.00595065 0.00269764) (29.7533 0.00383513 -0.00936442) (27.9569 0.00336138 -0.0121823)
179           (30.0569 -0.00595858 0.00270701) (29.7569 0.00390019 -0.00966408) (27.9448 0.00336305 -0.0136442)
180           (30.0581 -0.00596725 0.00271335) (29.7601 0.00396034 -0.00997483) (27.9321 0.00339672 -0.0151951)
181           (30.0593 -0.00597664 0.00271718) (29.7629 0.00401906 -0.0102952) (27.9193 0.00345986 -0.016817)
182           (30.0604 -0.00598662 0.00271889) (29.7653 0.00407611 -0.010627) (27.9064 0.00354948 -0.0184915)
183           (30.0615 -0.00599719 0.00271859) (29.7671 0.00413218 -0.0109716) (27.8937 0.0036604 -0.0202013)
184           (30.0625 -0.00600837 0.00271601) (29.7683 0.00418801 -0.0113273) (27.8814 0.00378637 -0.0219301)
185           (30.0634 -0.00602018 0.00271099) (29.7688 0.00424498 -0.0116919) (27.8695 0.00392071 -0.0236658)
186           (30.0644 -0.00603259 0.00270368) (29.7687 0.004304 -0.0120657) (27.8583 0.00405766 -0.0254015)
187           (30.0652 -0.00604559 0.00269452) (29.7679 0.00436552 -0.0124486) (27.8477 0.00419296 -0.0271305)
188           (30.066 -0.00605919 0.00268399) (29.7665 0.00443002 -0.0128383) (27.8379 0.00432385 -0.0288411)
189           (30.0668 -0.00607342 0.00267216) (29.7645 0.00449747 -0.0132295) (27.8288 0.00444883 -0.0305165)
190           (30.0675 -0.0060883 0.00265873) (29.7618 0.00456752 -0.0136151) (27.8206 0.00456721 -0.0321395)
191           (30.0681 -0.00610385 0.00264348) (29.7585 0.00463984 -0.0139886) (27.8131 0.00467856 -0.0336994)
192           (30.0687 -0.00612006 0.00262627) (29.7548 0.00471414 -0.0143455) (27.8064 0.00478249 -0.0351898)
193           (30.0692 -0.00613694 0.00260727) (29.7506 0.00478993 -0.0146633) (27.8005 0.00487866 -0.0366043)
194           (30.0697 -0.00615445 0.00258683) (29.7461 0.00486623 -0.0149503) (27.7953 0.00496689 -0.0379359)
195           (30.0702 -0.00617259 0.0025653) (29.7413 0.00494261 -0.0152243) (27.7908 0.00504733 -0.0391781)
196           (30.0706 -0.00619137 0.0025429) (29.7363 0.00501922 -0.0154396) (27.7869 0.00512064 -0.0403274)
197           (30.0709 -0.00621082 0.00251971) (29.7313 0.00509593 -0.0155957) (27.7834 0.00518792 -0.0413834)
198           (30.0712 -0.00623099 0.00249582) (29.7263 0.00517199 -0.0156992) (27.7804 0.00525056 -0.0423458)
199           (30.0714 -0.00625186 0.00247126) (29.7214 0.00524679 -0.0157432) (27.7777 0.0053102 -0.0432144)
200           (30.0715 -0.0062734 0.00244618) (29.7168 0.00531978 -0.0157201) (27.7752 0.00536891 -0.0439882)
201           (30.0716 -0.00629554 0.00242087) (29.7126 0.00539013 -0.0156317) (27.7729 0.00542871 -0.0446688)
202           (30.0717 -0.0063182 0.00239561) (29.7087 0.00545672 -0.0154994) (27.7706 0.00549065 -0.0452621)
203           (30.0716 -0.00634133 0.00237057) (29.7053 0.00551849 -0.015293) (27.7682 0.00555549 -0.0457749)
204           (30.0716 -0.00636487 0.00234584) (29.7024 0.00557501 -0.0150001) (27.7658 0.00562419 -0.0462134)
205           (30.0714 -0.00638876 0.00232161) (29.7001 0.00562629 -0.014666) (27.763 0.00569783 -0.0465841)
206           (30.0712 -0.00641294 0.00229817) (29.6984 0.00567192 -0.014305) (27.76 0.00577766 -0.046895)
207           (30.071 -0.00643731 0.00227577) (29.6972 0.00571187 -0.0139213) (27.7567 0.00586474 -0.0471555)
208           (30.0707 -0.00646174 0.00225446) (29.6967 0.0057465 -0.0135197) (27.753 0.00595964 -0.0473767)
209           (30.0703 -0.00648608 0.00223432) (29.6967 0.00577601 -0.0131059) (27.749 0.00606266 -0.0475695)
210           (30.0699 -0.00651014 0.00221544) (29.6973 0.00580061 -0.0126875) (27.7444 0.00617419 -0.0477425)
211           (30.0695 -0.0065337 0.00219798) (29.6984 0.00582027 -0.0122718) (27.7394 0.00629474 -0.0479024)
212           (30.069 -0.00655661 0.00218211) (29.6999 0.00583518 -0.0118653) (27.734 0.00642462 -0.048055)
213           (30.0684 -0.00657864 0.00216797) (29.7019 0.00584573 -0.0114747) (27.7281 0.00656369 -0.0482063)
214           (30.0678 -0.00659953 0.00215555) (29.7042 0.00585242 -0.0111059) (27.7218 0.00671148 -0.0483643)
215           (30.0671 -0.006619 0.00214478) (29.7068 0.00585583 -0.0107636) (27.7151 0.00686729 -0.0485373)
216           (30.0665 -0.00663678 0.00213565) (29.7097 0.00585649 -0.0104491) (27.7081 0.00703015 -0.0487315)
217           (30.0657 -0.00665263 0.00212818) (29.7128 0.00585484 -0.0101613) (27.7008 0.00719891 -0.0489499)
218           (30.065 -0.00666627 0.00212236) (29.7159 0.00585135 -0.00989847) (27.6933 0.00737232 -0.0491932)
219           (30.0642 -0.00667743 0.00211812) (29.7191 0.0058462 -0.00965915) (27.6856 0.00754896 -0.0494617)
220           (30.0634 -0.00668583 0.0021153) (29.7222 0.00583965 -0.00944171) (27.6779 0.00772722 -0.0497562)
221           (30.0626 -0.00669121 0.00211382) (29.7253 0.00583268 -0.00924544) (27.6701 0.00790552 -0.0500772)
222           (30.0617 -0.00669338 0.00211359) (29.7283 0.00582531 -0.00906874) (27.6624 0.00808226 -0.0504243)
223           (30.0609 -0.00669215 0.00211436) (29.731 0.00581785 -0.00890619) (27.6547 0.00825578 -0.0507956)
224           (30.06 -0.00668742 0.00211596) (29.7336 0.00581056 -0.00875316) (27.6471 0.00842485 -0.0511885)
225           (30.0592 -0.00667913 0.00211826) (29.7358 0.00580301 -0.00860562) (27.6397 0.00858824 -0.0515999)
226           (30.0584 -0.00666731 0.00212121) (29.7377 0.00579469 -0.00845882) (27.6324 0.00874465 -0.0520238)
227           (30.0576 -0.00665216 0.0021248) (29.7394 0.00578585 -0.00830743) (27.6255 0.00889297 -0.0524526)
228           (30.0568 -0.00663401 0.00212909) (29.7408 0.00577763 -0.00814685) (27.619 0.0090319 -0.0528808)
229           (30.056 -0.0066132 0.00213382) (29.7419 0.00577114 -0.00797461) (27.6128 0.0091599 -0.0533069)
230           (30.0553 -0.00659012 0.00213846) (29.7427 0.00576686 -0.00778946) (27.607 0.00927586 -0.0537306)
231           (30.0546 -0.00656527 0.00214255) (29.7432 0.00576466 -0.00758954) (27.6016 0.00937969 -0.0541489)
232           (30.0539 -0.00653925 0.00214594) (29.7434 0.00576416 -0.00737214) (27.5965 0.00947195 -0.0545562)
233           (30.0533 -0.00651277 0.00214873) (29.7433 0.00576493 -0.00713462) (27.5919 0.0095531 -0.0549464)
234           (30.0528 -0.00648653 0.00215109) (29.7431 0.00576657 -0.00687591) (27.5878 0.00962285 -0.0553174)
235           (30.0523 -0.00646123 0.00215283) (29.7427 0.0057689 -0.00659796) (27.5841 0.00968078 -0.0556713)
236           (30.0518 -0.00643745 0.00215364) (29.7422 0.00577228 -0.00630476) (27.5807 0.00972695 -0.0560065)
237           (30.0514 -0.00641572 0.00215347) (29.7416 0.00577642 -0.00600331) (27.5779 0.00976294 -0.056312)
238           (30.051 -0.0063964 0.00215226) (29.741 0.00578083 -0.00570121) (27.5754 0.00978902 -0.0566016)
239           (30.0507 -0.00637981 0.00215006) (29.7404 0.00578552 -0.00540186) (27.5732 0.00980556 -0.0568826)
240           (30.0504 -0.00636625 0.00214743) (29.7398 0.00579061 -0.00510301) (27.5713 0.00981392 -0.0571392)
241           (30.0501 -0.00635569 0.00214439) (29.7393 0.00579586 -0.00480437) (27.5699 0.00981599 -0.0573594)
242           (30.0499 -0.00634783 0.00214011) (29.7389 0.00580121 -0.00450926) (27.5686 0.00981281 -0.0575501)
243           (30.0497 -0.00634233 0.00213377) (29.7386 0.00580623 -0.00422238) (27.5674 0.00980604 -0.0577133)
244           (30.0495 -0.00633925 0.00212603) (29.7384 0.00581069 -0.00394837) (27.5664 0.00979626 -0.0578493)
245           (30.0493 -0.00633856 0.00211799) (29.7384 0.00581445 -0.003693) (27.5654 0.00978382 -0.0579546)
246           (30.0492 -0.00633992 0.00210978) (29.7384 0.0058175 -0.00346156) (27.5645 0.00976884 -0.0580268)
247           (30.049 -0.00634309 0.00210139) (29.7387 0.00581975 -0.00325782) (27.5637 0.00975305 -0.0580626)
248           (30.0489 -0.00634752 0.00209191) (29.7391 0.00582065 -0.0030817) (27.5629 0.00973825 -0.058062)
249           (30.0488 -0.00635295 0.00208094) (29.7397 0.00582032 -0.00292961) (27.562 0.00972422 -0.0580271)
250           (30.0487 -0.00635925 0.00206891) (29.7404 0.0058191 -0.00279806) (27.561 0.00971074 -0.0579568)
251           (30.0486 -0.00636629 0.00205658) (29.7412 0.00581724 -0.00268522) (27.56 0.00969811 -0.0578488)
252           (30.0485 -0.00637391 0.00204436) (29.7422 0.0058145 -0.00259148) (27.5588 0.00968801 -0.0577)
253           (30.0484 -0.0063819 0.00203208) (29.7432 0.00581049 -0.00251824) (27.5576 0.00968103 -0.0575152)
254           (30.0483 -0.00639009 0.00201929) (29.7443 0.00580522 -0.00246615) (27.5562 0.00967662 -0.0572992)
255           (30.0482 -0.00639837 0.00200574) (29.7455 0.00579895 -0.00243467) (27.5548 0.00967423 -0.0570542)
256           (30.0481 -0.00640667 0.00199167) (29.7468 0.00579218 -0.00242217) (27.5532 0.00967324 -0.0567842)
257           (30.048 -0.00641492 0.00197743) (29.7481 0.00578504 -0.00242543) (27.5516 0.00967354 -0.0564912)
258           (30.0479 -0.00642305 0.00196322) (29.7494 0.00577732 -0.00243989) (27.5498 0.00967591 -0.0561764)
259           (30.0478 -0.00643097 0.00194907) (29.7507 0.00576907 -0.00246117) (27.548 0.00968063 -0.0558446)
260           (30.0477 -0.00643859 0.00193495) (29.752 0.00576049 -0.00248593) (27.5462 0.00968706 -0.0555017)
261           (30.0476 -0.0064459 0.00192085) (29.7532 0.00575175 -0.0025118) (27.5444 0.00969431 -0.0551516)
262           (30.0475 -0.00645289 0.00190684) (29.7544 0.00574299 -0.0025369) (27.5426 0.00970179 -0.0547967)
263           (30.0474 -0.00645957 0.00189298) (29.7556 0.00573436 -0.00255955) (27.5408 0.00970929 -0.0544389)
264           (30.0473 -0.00646592 0.00187934) (29.7566 0.00572608 -0.00257843) (27.539 0.00971673 -0.0540815)
265           (30.0472 -0.00647191 0.00186596) (29.7577 0.00571835 -0.00259251) (27.5373 0.00972387 -0.0537293)
266           (30.0471 -0.00647752 0.00185289) (29.7586 0.00571121 -0.00260082) (27.5356 0.00973026 -0.0533874)
267           (30.0469 -0.00648277 0.00184019) (29.7595 0.00570464 -0.0026022) (27.5341 0.0097354 -0.0530598)
268           (30.0468 -0.00648765 0.00182786) (29.7603 0.00569855 -0.00259531) (27.5326 0.0097389 -0.0527492)
269           (30.0467 -0.00649218 0.00181591) (29.761 0.00569296 -0.00257882) (27.5313 0.00974061 -0.0524571)
270           (30.0466 -0.00649635 0.00180437) (29.7617 0.00568795 -0.00255179) (27.53 0.00974046 -0.052185)
271           (30.0465 -0.00650018 0.00179328) (29.7622 0.00568361 -0.00251402) (27.5289 0.00973842 -0.0519338)
272           (30.0464 -0.00650368 0.00178265) (29.7628 0.00567994 -0.00246625) (27.5279 0.00973439 -0.0517046)
273           (30.0463 -0.00650685 0.00177252) (29.7633 0.00567689 -0.00240981) (27.527 0.0097283 -0.0514982)