# y+ ()       
# Time        	patch         	min           	max           	average       
0             	nozzle_int	0.000000e+00	0.000000e+00	0.000000e+00
0             	nozzle_ext	0.000000e+00	0.000000e+00	0.000000e+00
0             	collector_int	0.000000e+00	0.000000e+00	0.000000e+00
0             	collector_ext	0.000000e+00	0.000000e+00	0.000000e+00
0             	diffuser_int	0.000000e+00	0.000000e+00	0.000000e+00
0             	diffuser_ext	0.000000e+00	0.000000e+00	0.000000e+00
10            	nozzle_int	3.740945e-01	1.639163e+03	4.494329e+01
10            	nozzle_ext	8.100361e-04	1.604700e+02	3.558678e+00
10            	collector_int	2.560774e+00	7.149516e+02	1.185183e+02
10            	collector_ext	1.174244e-01	8.295034e+01	9.247064e+00
10            	diffuser_int	8.879641e+00	5.693037e+02	2.008717e+02
10            	diffuser_ext	3.212063e-03	7.784364e+01	3.339970e+00
20            	nozzle_int	3.678610e-01	1.455184e+03	3.818086e+01
20            	nozzle_ext	9.194381e-03	1.334889e+02	2.480531e+00
20            	collector_int	5.861096e+00	5.682545e+02	1.024696e+02
20            	collector_ext	8.443174e-02	7.322749e+01	9.340513e+00
20            	diffuser_int	5.186953e+00	6.621874e+02	1.189292e+02
20            	diffuser_ext	3.122615e-02	8.005913e+01	3.521658e+00
30            	nozzle_int	2.758973e-01	1.214549e+03	3.300416e+01
30            	nozzle_ext	1.769056e-02	1.111321e+02	2.237150e+00
30            	collector_int	3.458139e+00	7.613419e+02	1.573354e+02
30            	collector_ext	7.695424e-02	8.321552e+01	8.845698e+00
30            	diffuser_int	1.622237e+00	5.005973e+02	9.719036e+01
30            	diffuser_ext	2.272600e-02	8.170787e+01	5.974415e+00
40            	nozzle_int	1.936238e-01	9.883039e+02	3.093564e+01
40            	nozzle_ext	6.212351e-03	1.016025e+02	2.062663e+00
40            	collector_int	3.932407e+00	9.012706e+02	1.436528e+02
40            	collector_ext	1.326740e-01	8.086075e+01	1.023160e+01
40            	diffuser_int	7.822612e+00	5.281004e+02	1.088028e+02
40            	diffuser_ext	2.679321e-02	6.916158e+01	6.353122e+00
50            	nozzle_int	1.856943e-01	9.209017e+02	3.043660e+01
50            	nozzle_ext	3.329264e-03	9.977264e+01	2.008313e+00
50            	collector_int	4.193948e+00	8.821424e+02	1.494071e+02
50            	collector_ext	2.763311e-02	8.400908e+01	1.038172e+01
50            	diffuser_int	8.011808e+00	5.370323e+02	1.154172e+02
50            	diffuser_ext	3.280345e-02	7.310325e+01	7.238249e+00
60            	nozzle_int	1.446817e-01	9.000754e+02	3.041039e+01
60            	nozzle_ext	6.682325e-03	9.522236e+01	1.996171e+00
60            	collector_int	3.456417e+00	7.920538e+02	1.409901e+02
60            	collector_ext	1.487219e-01	8.009584e+01	1.129285e+01
60            	diffuser_int	3.775412e+00	5.115867e+02	1.189453e+02
60            	diffuser_ext	2.099307e-02	7.258601e+01	7.391848e+00
70            	nozzle_int	1.478766e-01	8.909148e+02	3.044296e+01
70            	nozzle_ext	5.223747e-03	9.410985e+01	2.035300e+00
70            	collector_int	3.776128e+00	8.027471e+02	1.357813e+02
70            	collector_ext	1.091820e-01	6.968703e+01	1.061283e+01
70            	diffuser_int	7.278633e+00	4.721435e+02	1.203008e+02
70            	diffuser_ext	6.812108e-02	6.767799e+01	6.923378e+00
80            	nozzle_int	1.479229e-01	8.901906e+02	3.052636e+01
80            	nozzle_ext	3.989793e-03	9.407282e+01	2.020041e+00
80            	collector_int	3.950319e+00	7.582619e+02	1.329199e+02
80            	collector_ext	5.169759e-02	6.850736e+01	9.808644e+00
80            	diffuser_int	3.918632e+00	3.588464e+02	1.073706e+02
80            	diffuser_ext	5.304862e-02	6.070942e+01	6.319531e+00
90            	nozzle_int	1.547218e-01	8.908433e+02	3.060545e+01
90            	nozzle_ext	3.265011e-04	9.374346e+01	2.075223e+00
90            	collector_int	4.426258e+00	7.186062e+02	1.268164e+02
90            	collector_ext	1.291883e-01	6.152424e+01	8.803471e+00
90            	diffuser_int	6.438279e+00	3.007871e+02	9.977211e+01
90            	diffuser_ext	3.341265e-02	6.032019e+01	6.102988e+00
100           	nozzle_int	1.905555e-01	8.902778e+02	3.063496e+01
100           	nozzle_ext	2.928936e-03	9.374849e+01	2.075719e+00
100           	collector_int	3.766926e+00	7.018872e+02	1.262512e+02
100           	collector_ext	1.400711e-01	6.346782e+01	9.331026e+00
100           	diffuser_int	5.045116e+00	2.668900e+02	9.415821e+01
100           	diffuser_ext	6.628914e-02	5.533454e+01	5.806722e+00
110           	nozzle_int	2.146452e-01	8.897871e+02	3.068230e+01
110           	nozzle_ext	4.414833e-03	9.403666e+01	2.087906e+00
110           	collector_int	4.559077e+00	6.870222e+02	1.282710e+02
110           	collector_ext	1.449966e-01	6.301525e+01	9.365124e+00
110           	diffuser_int	5.431843e+00	2.836077e+02	9.367261e+01
110           	diffuser_ext	2.878808e-02	5.533009e+01	5.521011e+00
120           	nozzle_int	2.212501e-01	8.879893e+02	3.070867e+01
120           	nozzle_ext	5.388184e-03	9.415708e+01	1.989930e+00
120           	collector_int	4.716752e+00	6.739269e+02	1.294603e+02
120           	collector_ext	1.498278e-01	6.285057e+01	9.139828e+00
120           	diffuser_int	4.880406e+00	2.891463e+02	9.375327e+01
120           	diffuser_ext	5.291409e-02	5.545108e+01	5.429501e+00
130           	nozzle_int	1.944061e-01	8.870325e+02	3.075197e+01
130           	nozzle_ext	2.896858e-03	9.384957e+01	1.855092e+00
130           	collector_int	7.461679e+00	6.598066e+02	1.295295e+02
130           	collector_ext	1.934000e-01	6.370004e+01	9.413751e+00
130           	diffuser_int	4.660286e+00	2.971842e+02	9.204891e+01
130           	diffuser_ext	1.908645e-02	5.580172e+01	5.339502e+00
140           	nozzle_int	1.588937e-01	8.869854e+02	3.080814e+01
140           	nozzle_ext	3.531276e-03	9.340798e+01	1.770624e+00
140           	collector_int	7.750878e+00	6.469480e+02	1.296390e+02
140           	collector_ext	2.577745e-01	6.392612e+01	9.379852e+00
140           	diffuser_int	4.248566e+00	2.923298e+02	9.018141e+01
140           	diffuser_ext	9.752885e-03	5.637851e+01	5.308631e+00
150           	nozzle_int	1.535670e-01	8.871769e+02	3.086853e+01
150           	nozzle_ext	7.949361e-03	9.335939e+01	1.631399e+00
150           	collector_int	7.796776e+00	6.423222e+02	1.301269e+02
150           	collector_ext	1.171903e-01	6.488224e+01	9.436035e+00
150           	diffuser_int	2.779065e+00	2.962386e+02	8.970935e+01
150           	diffuser_ext	1.218703e-02	5.621166e+01	5.215037e+00
160           	nozzle_int	1.281653e-01	8.874668e+02	3.089123e+01
160           	nozzle_ext	3.262130e-03	9.346962e+01	1.502953e+00
160           	collector_int	7.630711e+00	6.370262e+02	1.303289e+02
160           	collector_ext	7.974762e-02	6.550384e+01	9.486585e+00
160           	diffuser_int	4.362267e+00	2.973003e+02	8.999276e+01
160           	diffuser_ext	4.080197e-02	5.615109e+01	5.097696e+00
170           	nozzle_int	1.399822e-01	8.876240e+02	3.090744e+01
170           	nozzle_ext	2.804445e-03	9.349008e+01	1.404844e+00
170           	collector_int	7.571783e+00	6.365933e+02	1.304409e+02
170           	collector_ext	1.723233e-01	6.610274e+01	9.539824e+00
170           	diffuser_int	3.647113e+00	2.961779e+02	9.032498e+01
170           	diffuser_ext	3.478232e-02	5.628886e+01	5.047328e+00
180           	nozzle_int	1.563664e-01	8.876843e+02	3.091676e+01
180           	nozzle_ext	8.416983e-03	9.347665e+01	1.343512e+00
180           	collector_int	7.482359e+00	6.372328e+02	1.306801e+02
180           	collector_ext	7.038585e-02	6.655501e+01	9.530742e+00
180           	diffuser_int	3.997183e+00	2.957093e+02	9.090298e+01
180           	diffuser_ext	1.963717e-03	5.627723e+01	4.966719e+00
190           	nozzle_int	1.565227e-01	8.877131e+02	3.092183e+01
190           	nozzle_ext	8.478972e-03	9.347089e+01	1.309734e+00
190           	collector_int	7.441191e+00	6.392847e+02	1.309275e+02
190           	collector_ext	2.025656e-03	6.688859e+01	9.511264e+00
190           	diffuser_int	2.781757e+00	2.975631e+02	9.218017e+01
190           	diffuser_ext	2.636931e-02	5.628690e+01	4.921369e+00
200           	nozzle_int	1.573110e-01	8.877188e+02	3.092371e+01
200           	nozzle_ext	2.881101e-03	9.346732e+01	1.299912e+00
200           	collector_int	7.417660e+00	6.398421e+02	1.311486e+02
200           	collector_ext	5.842934e-02	6.702889e+01	9.504469e+00
200           	diffuser_int	3.295189e+00	3.014395e+02	9.222990e+01
200           	diffuser_ext	1.571340e-02	5.634011e+01	4.873379e+00
210           	nozzle_int	1.569276e-01	8.877195e+02	3.092442e+01
210           	nozzle_ext	4.867184e-03	9.346584e+01	1.295846e+00
210           	collector_int	7.407432e+00	6.398763e+02	1.313064e+02
210           	collector_ext	1.023583e-01	6.708078e+01	9.520715e+00
210           	diffuser_int	2.859103e+00	3.054307e+02	9.217752e+01
210           	diffuser_ext	2.266178e-02	5.635314e+01	4.849577e+00
220           	nozzle_int	1.571009e-01	8.877213e+02	3.092482e+01
220           	nozzle_ext	3.769572e-03	9.346580e+01	1.292406e+00
220           	collector_int	7.346622e+00	6.393156e+02	1.313834e+02
220           	collector_ext	7.061570e-02	6.705194e+01	9.540082e+00
220           	diffuser_int	3.401912e+00	3.082907e+02	9.250539e+01
220           	diffuser_ext	4.685605e-02	5.637086e+01	4.835871e+00
230           	nozzle_int	1.573023e-01	8.877245e+02	3.092542e+01
230           	nozzle_ext	3.903689e-03	9.346611e+01	1.290791e+00
230           	collector_int	7.296022e+00	6.386535e+02	1.314272e+02
230           	collector_ext	1.601514e-01	6.704669e+01	9.550861e+00
230           	diffuser_int	3.193619e+00	3.101912e+02	9.267825e+01
230           	diffuser_ext	1.165430e-02	5.640913e+01	4.825787e+00
240           	nozzle_int	1.575220e-01	8.877277e+02	3.092553e+01
240           	nozzle_ext	1.999009e-03	9.346626e+01	1.292207e+00
240           	collector_int	7.249560e+00	6.381430e+02	1.314536e+02
240           	collector_ext	1.761784e-01	6.703892e+01	9.555162e+00
240           	diffuser_int	2.821266e+00	3.110767e+02	9.289211e+01
240           	diffuser_ext	1.479646e-02	5.639935e+01	4.811946e+00
250           	nozzle_int	1.577931e-01	8.877298e+02	3.092589e+01
250           	nozzle_ext	1.775545e-03	9.346630e+01	1.294020e+00
250           	collector_int	7.214679e+00	6.378018e+02	1.314644e+02
250           	collector_ext	1.258139e-01	6.702818e+01	9.559978e+00
250           	diffuser_int	2.830835e+00	3.115894e+02	9.296217e+01
250           	diffuser_ext	2.455325e-02	5.641077e+01	4.799992e+00
260           	nozzle_int	1.579962e-01	8.877331e+02	3.092633e+01
260           	nozzle_ext	2.067634e-03	9.346642e+01	1.295439e+00
260           	collector_int	7.190060e+00	6.376152e+02	1.314680e+02
260           	collector_ext	1.948863e-01	6.702196e+01	9.560565e+00
260           	diffuser_int	4.062525e+00	3.117656e+02	9.298322e+01
260           	diffuser_ext	1.235503e-02	5.641315e+01	4.789967e+00
270           	nozzle_int	1.582094e-01	8.877390e+02	3.092663e+01
270           	nozzle_ext	5.700795e-03	9.346653e+01	1.296603e+00
270           	collector_int	7.170274e+00	6.375671e+02	1.314721e+02
270           	collector_ext	6.055896e-02	6.701372e+01	9.553879e+00
270           	diffuser_int	3.516107e+00	3.117379e+02	9.305095e+01
270           	diffuser_ext	4.633463e-02	5.640306e+01	4.781899e+00
280           	nozzle_int	1.584914e-01	8.877449e+02	3.092690e+01
280           	nozzle_ext	5.387042e-03	9.346658e+01	1.297983e+00
280           	collector_int	7.157812e+00	6.375567e+02	1.314787e+02
280           	collector_ext	1.797804e-01	6.700438e+01	9.551380e+00
280           	diffuser_int	3.588119e+00	3.117385e+02	9.312826e+01
280           	diffuser_ext	2.464175e-02	5.639982e+01	4.776399e+00
290           	nozzle_int	1.588353e-01	8.877497e+02	3.092754e+01
290           	nozzle_ext	3.154717e-03	9.346653e+01	1.299312e+00
290           	collector_int	7.150256e+00	6.375426e+02	1.314855e+02
290           	collector_ext	1.669930e-01	6.699859e+01	9.550637e+00
290           	diffuser_int	3.456340e+00	3.117599e+02	9.318399e+01
290           	diffuser_ext	2.157648e-02	5.639486e+01	4.772970e+00
300           	nozzle_int	1.591914e-01	8.877554e+02	3.092776e+01
300           	nozzle_ext	7.461756e-03	9.346652e+01	1.300794e+00
300           	collector_int	7.143540e+00	6.375859e+02	1.314932e+02
300           	collector_ext	1.934004e-01	6.699457e+01	9.551192e+00
300           	diffuser_int	4.208386e+00	3.117734e+02	9.321735e+01
300           	diffuser_ext	3.454272e-02	5.639024e+01	4.770516e+00
310           	nozzle_int	1.595872e-01	8.877610e+02	3.092824e+01
310           	nozzle_ext	4.171949e-03	9.346697e+01	1.302573e+00
310           	collector_int	7.139793e+00	6.376336e+02	1.315010e+02
310           	collector_ext	2.173898e-01	6.699408e+01	9.550778e+00
310           	diffuser_int	3.876719e+00	3.118075e+02	9.323972e+01
310           	diffuser_ext	5.745740e-03	5.639094e+01	4.769302e+00
320           	nozzle_int	1.600338e-01	8.877666e+02	3.092886e+01
320           	nozzle_ext	1.839141e-03	9.346747e+01	1.304247e+00
320           	collector_int	7.135266e+00	6.376400e+02	1.315082e+02
320           	collector_ext	2.005284e-01	6.699438e+01	9.549771e+00
320           	diffuser_int	4.211974e+00	3.118137e+02	9.325880e+01
320           	diffuser_ext	4.507477e-02	5.639082e+01	4.768452e+00
330           	nozzle_int	1.604836e-01	8.877723e+02	3.092926e+01
330           	nozzle_ext	5.094283e-03	9.346792e+01	1.305976e+00
330           	collector_int	7.131466e+00	6.376169e+02	1.315158e+02
330           	collector_ext	2.348523e-01	6.699649e+01	9.549133e+00
330           	diffuser_int	3.797740e+00	3.118269e+02	9.327055e+01
330           	diffuser_ext	2.757062e-02	5.639379e+01	4.767721e+00
340           	nozzle_int	1.609480e-01	8.877777e+02	3.092967e+01
340           	nozzle_ext	4.303318e-03	9.346847e+01	1.308117e+00
340           	collector_int	7.128057e+00	6.375647e+02	1.315244e+02
340           	collector_ext	2.343056e-01	6.699892e+01	9.548775e+00
340           	diffuser_int	4.251493e+00	3.118353e+02	9.327464e+01
340           	diffuser_ext	3.349013e-02	5.639659e+01	4.766977e+00
350           	nozzle_int	1.614304e-01	8.877829e+02	3.093041e+01
350           	nozzle_ext	4.093023e-03	9.346911e+01	1.310212e+00
350           	collector_int	7.124933e+00	6.374864e+02	1.315333e+02
350           	collector_ext	7.060646e-02	6.700279e+01	9.548618e+00
350           	diffuser_int	4.260809e+00	3.118586e+02	9.327360e+01
350           	diffuser_ext	6.177079e-02	5.639985e+01	4.765838e+00
360           	nozzle_int	1.619004e-01	8.877876e+02	3.093079e+01
360           	nozzle_ext	2.068133e-03	9.346974e+01	1.312317e+00
360           	collector_int	7.121863e+00	6.373893e+02	1.315424e+02
360           	collector_ext	6.223902e-02	6.700749e+01	9.548512e+00
360           	diffuser_int	4.269104e+00	3.119010e+02	9.327106e+01
360           	diffuser_ext	6.260954e-02	5.640434e+01	4.764174e+00
370           	nozzle_int	1.623857e-01	8.877907e+02	3.093141e+01
370           	nozzle_ext	3.794088e-03	9.347043e+01	1.314754e+00
370           	collector_int	7.119610e+00	6.372773e+02	1.315531e+02
370           	collector_ext	1.792596e-01	6.701343e+01	9.548652e+00
370           	diffuser_int	4.274463e+00	3.119638e+02	9.326752e+01
370           	diffuser_ext	2.990292e-02	5.640949e+01	4.761940e+00
380           	nozzle_int	1.628771e-01	8.877934e+02	3.093211e+01
380           	nozzle_ext	1.890729e-03	9.347111e+01	1.317110e+00
380           	collector_int	7.117692e+00	6.371578e+02	1.315652e+02
380           	collector_ext	8.666057e-02	6.701949e+01	9.548226e+00
380           	diffuser_int	4.283144e+00	3.120460e+02	9.326292e+01
380           	diffuser_ext	2.285627e-02	5.641487e+01	4.759292e+00
390           	nozzle_int	1.633666e-01	8.877961e+02	3.093269e+01
390           	nozzle_ext	2.813125e-03	9.347174e+01	1.319585e+00
390           	collector_int	7.116053e+00	6.370366e+02	1.315783e+02
390           	collector_ext	8.925524e-02	6.702622e+01	9.548382e+00
390           	diffuser_int	4.278154e+00	3.121590e+02	9.325737e+01
390           	diffuser_ext	4.647195e-02	5.642064e+01	4.756357e+00
400           	nozzle_int	1.638744e-01	8.877986e+02	3.093324e+01
400           	nozzle_ext	3.424437e-03	9.347251e+01	1.322309e+00
400           	collector_int	7.113946e+00	6.369096e+02	1.315919e+02
400           	collector_ext	1.635530e-02	6.703335e+01	9.548413e+00
400           	diffuser_int	4.261622e+00	3.123000e+02	9.325172e+01
400           	diffuser_ext	1.951164e-02	5.642694e+01	4.753289e+00
410           	nozzle_int	1.643950e-01	8.878010e+02	3.093409e+01
410           	nozzle_ext	1.189389e-03	9.347328e+01	1.324994e+00
410           	collector_int	7.111304e+00	6.367773e+02	1.316062e+02
410           	collector_ext	8.188011e-02	6.704086e+01	9.548677e+00
410           	diffuser_int	4.241813e+00	3.124611e+02	9.324615e+01
410           	diffuser_ext	1.962848e-02	5.643362e+01	4.750494e+00
420           	nozzle_int	1.649208e-01	8.878033e+02	3.093461e+01
420           	nozzle_ext	5.844918e-03	9.347397e+01	1.327806e+00
420           	collector_int	7.109325e+00	6.366479e+02	1.316219e+02
420           	collector_ext	1.113482e-01	6.704896e+01	9.548569e+00
420           	diffuser_int	4.220988e+00	3.126374e+02	9.324072e+01
420           	diffuser_ext	1.678270e-02	5.644080e+01	4.747592e+00
430           	nozzle_int	1.654644e-01	8.878048e+02	3.093536e+01
430           	nozzle_ext	6.126999e-03	9.347470e+01	1.330823e+00
430           	collector_int	7.106659e+00	6.365143e+02	1.316379e+02
430           	collector_ext	1.333642e-01	6.705693e+01	9.548300e+00
430           	diffuser_int	4.201314e+00	3.128254e+02	9.323518e+01
430           	diffuser_ext	3.606915e-02	5.644817e+01	4.744710e+00
440           	nozzle_int	1.660253e-01	8.878057e+02	3.093616e+01
440           	nozzle_ext	3.892451e-03	9.347542e+01	1.333911e+00
440           	collector_int	7.103462e+00	6.363739e+02	1.316537e+02
440           	collector_ext	1.527377e-01	6.706532e+01	9.548208e+00
440           	diffuser_int	4.178060e+00	3.130224e+02	9.322943e+01
440           	diffuser_ext	1.288526e-02	5.645591e+01	4.741701e+00
450           	nozzle_int	1.666030e-01	8.878064e+02	3.093687e+01
450           	nozzle_ext	4.802273e-03	9.347618e+01	1.337038e+00
450           	collector_int	7.099513e+00	6.362272e+02	1.316694e+02
450           	collector_ext	1.727292e-01	6.707375e+01	9.548584e+00
450           	diffuser_int	4.149613e+00	3.132287e+02	9.322360e+01
450           	diffuser_ext	1.406626e-02	5.646357e+01	4.738712e+00
460           	nozzle_int	1.672021e-01	8.878085e+02	3.093753e+01
460           	nozzle_ext	4.686419e-03	9.347694e+01	1.340449e+00
460           	collector_int	7.095827e+00	6.360740e+02	1.316860e+02
460           	collector_ext	1.926574e-01	6.708244e+01	9.548645e+00
460           	diffuser_int	4.118062e+00	3.134470e+02	9.321772e+01
460           	diffuser_ext	5.354248e-03	5.647095e+01	4.735694e+00
470           	nozzle_int	1.678187e-01	8.878094e+02	3.093856e+01
470           	nozzle_ext	3.957338e-03	9.347756e+01	1.343804e+00
470           	collector_int	7.092278e+00	6.359153e+02	1.317026e+02
470           	collector_ext	1.826366e-01	6.709128e+01	9.549010e+00
470           	diffuser_int	4.084094e+00	3.136772e+02	9.321166e+01
470           	diffuser_ext	1.809509e-02	5.647824e+01	4.732958e+00
480           	nozzle_int	1.684633e-01	8.878093e+02	3.093921e+01
480           	nozzle_ext	3.546896e-03	9.347824e+01	1.347282e+00
480           	collector_int	7.088238e+00	6.357448e+02	1.317184e+02
480           	collector_ext	2.145566e-01	6.710023e+01	9.549224e+00
480           	diffuser_int	4.046983e+00	3.139128e+02	9.320535e+01
480           	diffuser_ext	2.619049e-02	5.648554e+01	4.730576e+00
490           	nozzle_int	1.691338e-01	8.878021e+02	3.094001e+01
490           	nozzle_ext	2.484916e-03	9.347896e+01	1.351092e+00
490           	collector_int	7.083530e+00	6.355680e+02	1.317335e+02
490           	collector_ext	2.053122e-01	6.710931e+01	9.549138e+00
490           	diffuser_int	4.007772e+00	3.141489e+02	9.319874e+01
490           	diffuser_ext	1.731765e-02	5.649227e+01	4.728250e+00
500           	nozzle_int	1.698293e-01	8.878062e+02	3.094091e+01
500           	nozzle_ext	2.043070e-03	9.347956e+01	1.354862e+00
500           	collector_int	7.079293e+00	6.353784e+02	1.317490e+02
500           	collector_ext	1.636428e-01	6.711890e+01	9.549995e+00
500           	diffuser_int	3.969887e+00	3.143824e+02	9.319178e+01
500           	diffuser_ext	2.994385e-02	5.649834e+01	4.726208e+00
