# Probe 0 (-1 0 0)
# Probe 1 (1 0 0)
# Probe 2 (1.7 0 0)
# Time        0             1             2            
0             0             0             0            
1             1.94314       -0.652773     -2.23363     
2             2932.59       -491.023      -2657.83     
3             2447.09       -550.476      -2637.64     
4             -126.717      -223.357      -704.808     
5             -2141.73      60.764        719.134      
6             -1632.38      94.1786       737.473      
7             235.967       -88.4945      -310.503     
8             1272.13       -241.266      -1121.75     
9             824.259       -260.639      -1160.99     
10            -274.268      -170.277      -613.137     
11            -816.262      -71.6184      -93.5017     
12            -468.551      -33.5743      31.0444      
13            205.208       -63.5618      -218.108     
14            476.839       -106.93       -488.999     
15            237.177       -130.077      -580.044     
16            -160.272      -115.899      -449.29      
17            -294.932      -89.2137      -279.32      
18            -132.454      -69.8567      -192.281     
19            97.8181       -74.1213      -253.131     
20            180.398       -88.1326      -349.002     
21            90.8893       -102.834      -416.953     
22            -48.1621      -106.723      -403.519     
23            -92.8687      -99.0799      -337.765     
24            -36.4321      -88.1882      -280.027     
25            37.2162       -81.5568      -264.894     
26            74.8196       -84.7655      -301.73      
27            49.7863       -92.9297      -346.909     
28            8.69853       -97.2655      -360.195     
29            -21.0269      -95.2987      -336.755     
30            -12.4011      -86.9928      -304.461     
31            12.2368       -76.0686      -278.515     
32            31.3486       -66.2         -265.351     
33            34.9987       -60.3227      -265.679     
34            25.0444       -57.5377      -273.572     
35            13.8346       -53.0073      -272.709     
36            7.37423       -44.2805      -258.461     
37            9.6189        -32.2206      -236.347     
38            16.2718       -17.9369      -208.466     
39            21.7425       -5.6033       -185.171     
40            20.5918       0.135563      -177.876     
41            18.0937       6.87332       -168.534     
42            15.435        15.1851       -154.564     
43            10.7268       27.3964       -127.315     
44            11.1788       34.3459       -107.698     
45            12.5899       35.4083       -99.9117     
46            13.921        38.0091       -89.1536     
47            15.0481       45.912        -65.7276     
48            14.6245       52.0148       -45.5926     
49            13.5049       55.4568       -28.1507     
50            13.207        54.0827       -20.5772     
51            12.9554       52.9223       -8.94894     
52            11.6223       56.0548       15.1073      
53            10.2844       58.4729       36.8953      
54            10.3892       60.142        56.026       
55            10.5196       57.6417       63.5787      
56            10.6853       55.5569       74.7045      
57            10.0776       56.7904       99.0032      
58            9.92463       52.7385       106.693      
59            9.8207        45.8819       110.935      
60            10.0708       36.0801       112.604      
61            10.499        24.6975       111.967      
62            10.6118       13.9235       109.036      
63            10.1344       5.47999       104.516      
64            9.28053       0.242823      99.9251      
65            8.30791       -3.15893      95.3546      
66            7.1235        -5.49939      88.5316      
67            6.44351       -6.3339       76.2961      
68            7.35754       -5.70778      68.1181      
69            7.88897       -2.96464      64.4618      
70            8.42127       3.00621       61.4868      
71            8.77899       10.5948       59.5791      
72            8.87968       16.4582       59.6413      
73            8.73074       18.9585       63.7698      
74            8.0762        18.7129       74.0005      
75            7.50878       18.4249       82.7229      
76            7.35642       20.0713       87.142       
77            7.39206       23.1316       89.3119      
78            7.55332       25.4297       90.7908      
79            7.75527       24.6054       92.6657      
80            7.8393        20.6624       94.8408      
81            7.84524       15.4044       96.2762      
82            7.75444       10.4584       98.3055      
83            7.64499       6.83638       99.2807      
84            7.62713       5.21493       94.4365      
85            7.65208       5.65087       89.5694      
86            7.58444       6.87578       83.8137      
87            7.54861       7.50041       79.5986      
88            7.51121       8.27521       80.5202      
89            7.49625       9.3559        82.5137      
90            7.50975       10.6003       84.2687      
91            7.55301       11.0677       84.5983      
92            7.61286       10.0206       83.1672      
93            7.66755       7.69893       80.7562      
94            7.70267       5.1205        78.5445      
95            7.70955       3.2135        77.3406      
96            7.70595       2.42089       77.3687      
97            7.68277       2.90249       78.8248      
98            7.64247       4.0907        79.1827      
99            7.59031       5.10294       80.7227      
100           7.54008       5.36246       81.9481      
101           7.47108       4.99557       83.184       
102           7.41887       4.44097       84.9375      
103           7.40617       4.50346       85.1731      
104           7.43399       5.26052       83.9694      
105           7.51033       6.20808       81.1463      
106           7.69982       6.39369       76.5212      
107           7.78716       3.86369       67.96        
108           7.72902       2.81666       66.2402      
109           7.63913       1.94444       65.6902      
110           7.61669       1.23352       67.7924      
111           7.62721       2.5489        76.5566      
112           7.53248       2.84168       79.0606      
113           7.53123       3.06281       79.7278      
114           7.50145       3.16449       80.3686      
115           7.44764       3.55925       81.1623      
116           7.43062       4.73503       81.917       
117           7.49672       6.83309       82.1106      
118           7.64848       9.5099        80.8715      
119           7.76446       11.7167       77.6556      
120           7.7834        12.7315       74.1782      
121           7.70552       13.3148       72.1037      
122           7.59781       14.3327       71.1229      
123           7.49002       15.6005       71.031       
124           7.41712       17.3074       70.8429      
125           7.39769       17.9616       70.6062      
126           7.40888       17.4095       70.0575      
127           7.42911       15.9726       69.1133      
128           7.43719       14.1776       67.8312      
129           7.4537        12.4604       66.1293      
130           7.53122       10.8681       63.4218      
131           7.682         9.19271       58.8931      
132           7.63494       7.6941        54.7751      
133           7.60004       6.3781        52.9         
134           7.52875       6.09001       51.5417      
135           7.48628       6.24735       50.08        
136           7.50616       6.852         48.3998      
137           7.5645        7.73851       46.8396      
138           7.62173       8.78564       45.863       
139           7.6615        10.0269       45.8252      
140           7.67378       11.4703       46.7157      
141           7.67081       12.9647       48.1844      
142           7.67685       14.2815       49.9643      
143           7.71591       15.3262       52.5621      
144           7.75282       15.895        55.7201      
145           7.75442       16.053        58.1417      
146           7.74665       15.8616       60.0124      
147           7.735         15.5964       61.9232      
148           7.72856       15.0664       63.3065      
149           7.73687       14.3493       64.5389      
150           7.75847       13.4468       65.4481      
151           7.78353       12.4911       65.6143      
152           7.80988       11.1178       64.5552      
153           7.81531       10.5611       64.3131      
154           7.86317       10.0127       63.2332      
155           7.87363       10.03         63.2169      
156           7.85634       10.3142       62.3344      
157           7.80753       10.6112       61.5921      
158           7.79654       10.7003       61.1449      
159           7.79908       10.8003       60.5642      
160           7.8223        11.0473       60.0075      
161           7.90051       11.5827       58.5664      
162           7.90147       11.8629       58.3535      
163           7.89824       12.2363       58.5101      
164           7.8851        13.0368       60.0144      
165           7.87982       13.5038       60.962       
166           7.81993       14.3907       63.8005      
167           7.80694       14.8672       65.2008      
168           7.80651       15.1273       66.0658      
169           7.82394       15.2637       66.7194      
170           7.84317       15.2922       67.2095      
171           7.85222       15.2392       67.6133      
172           7.84644       15.1356       68.0261      
173           7.82996       14.9925       68.5009      
174           7.79945       14.8176       69.0467      
175           7.78076       14.6456       69.4231      
176           7.74186       14.3944       70.0313      
177           7.71219       14.1393       70.3527      
178           7.70503       13.8377       70.0179      
179           7.73078       13.4791       69.1984      
180           7.73787       13.1402       68.4828      
181           7.73663       12.8561       68.0296      
182           7.72472       12.6904       67.9295      
183           7.71251       12.6494       68.0406      
184           7.69796       12.6838       68.2342      
185           7.67663       12.7564       68.003       
186           7.66458       12.7241       67.6506      
187           7.66464       12.6639       67.2852      
188           7.6633        12.679        67.1408      
189           7.66191       12.8759       67.5662      
190           7.66017       13.2292       68.3993      
191           7.65765       13.6022       69.1828      
192           7.65545       13.8891       69.6587      
193           7.65305       14.0635       69.8233      
194           7.65163       14.1618       69.8301      
195           7.64958       14.2471       69.8729      
196           7.64656       14.4162       70.1464      
197           7.6436        14.5387       70.3136      
198           7.64032       14.6716       70.6296      
199           7.63698       14.8703       71.4296      
200           7.636         14.9358       71.6958      
201           7.63577       14.9387       71.8359      
202           7.63559       14.8752       71.8521      
203           7.63511       14.7652       71.8009      
204           7.63437       14.6459       71.7637      
205           7.63612       14.5453       71.781       
206           7.6389        14.4652       71.828       
207           7.6424        14.3873       71.8465      
208           7.6461        14.2898       71.7807      
209           7.65283       14.1369       71.4554      
210           7.65392       14.0042       71.1959      
211           7.65082       13.8632       71.0362      
212           7.65064       13.7212       70.8968      
213           7.65084       13.7201       71.3603      
214           7.64783       13.7227       71.5909      
215           7.64454       13.7405       71.8071      
216           7.64543       13.7724       71.7164      
217           7.6497        13.7279       71.0782      
218           7.64954       13.6285       70.7262      
219           7.6556        13.4622       70.4226      
220           7.65209       13.4429       70.5077      
221           7.6579        13.7446       71.5766      
222           7.65674       13.9381       71.8773      
223           7.65663       14.1223       72.0585      
224           7.65753       14.2295       72.0293      
225           7.65877       14.2388       71.8225      
226           7.65929       14.1944       71.5842      
227           7.6604        14.1713       71.4844      
228           7.66014       14.2362       71.6568      
229           7.66385       14.3975       72.0494      
230           7.66561       14.5515       72.3489      
231           7.66693       14.6773       72.5131      
232           7.66684       14.7515       72.5037      
233           7.66549       14.739        72.3219      
234           7.66407       14.6682       72.0974      
235           7.66356       14.6018       71.9696      
236           7.66441       14.5757       71.9767      
237           7.66689       14.596        72.0883      
238           7.67101       14.6469       72.2407      
239           7.67592       14.6894       72.348       
240           7.67955       14.6855       72.3574      
241           7.68091       14.6383       72.3013      
242           7.68075       14.5751       72.2377      
243           7.67994       14.5126       72.1939      
244           7.67986       14.4632       72.1812      
245           7.6819        14.436        72.2029      
246           7.68706       14.4326       72.2599      
247           7.69304       14.4384       72.3333      
248           7.69657       14.4334       72.3775      
249           7.6973        14.4188       72.3754      
250           7.69862       14.3785       72.3551      
251           7.69903       14.3559       72.3355      
252           7.70037       14.3365       72.3097      
253           7.713         14.3377       72.3517      
254           7.71592       14.3492       72.3712      
255           7.71866       14.3689       72.3992      
256           7.72217       14.3945       72.4263      
257           7.7249        14.422        72.4399      
258           7.72605       14.4465       72.4304      
259           7.7265        14.4636       72.3974      
260           7.72793       14.4743       72.359       
261           7.73078       14.4873       72.3489      
262           7.73411       14.5076       72.3652      
263           7.74004       14.538        72.3877      
264           7.74717       14.5833       72.4104      
265           7.75547       14.6372       72.425       
266           7.76414       14.6831       72.4225      
267           7.76984       14.7077       72.4023      
268           7.77535       14.7147       72.3757      
269           7.77783       14.7181       72.3531      
270           7.77992       14.7265       72.333       
271           7.78237       14.7427       72.3125      
272           7.78555       14.7635       72.2936      
273           7.78951       14.7815       72.2824      
274           7.79396       14.7917       72.2835      
275           7.79861       14.7954       72.2954      
276           7.80493       14.7963       72.3097      
277           7.81168       14.797        72.3177      
278           7.81878       14.7971       72.3144      
279           7.82576       14.794        72.3005      
280           7.83191       14.7858       72.2819      
281           7.83699       14.7734       72.2653      
282           7.84065       14.7597       72.2533      
283           7.84481       14.7466       72.2448      
284           7.84895       14.7348       72.2377      
285           7.85444       14.7242       72.2309      
286           7.86063       14.7146       72.2241      
287           7.86708       14.706        72.2178      
288           7.87329       14.6985       72.2126      
289           7.87905       14.6921       72.2085      
290           7.88449       14.6866       72.2052      
291           7.88991       14.6819       72.2028      
292           7.89556       14.6783       72.2014      
293           7.90145       14.6764       72.201       
294           7.90735       14.6768       72.2009      
295           7.91299       14.6795       72.2001      
296           7.91826       14.6838       72.1975      
297           7.92331       14.689        72.1929      
298           7.92841       14.6947       72.1865      
299           7.93381       14.7005       72.179       
300           7.93958       14.7066       72.1714      
301           7.94565       14.713        72.1646      
302           7.95176       14.72         72.16        
303           7.95765       14.7278       72.1581      
304           7.9632        14.7366       72.1589      
305           7.96847       14.7465       72.1616      
306           7.97364       14.7574       72.1648      
307           7.97877       14.7685       72.1672      
308           7.98382       14.7786       72.1675      
309           7.98825       14.787        72.1654      
310           7.99287       14.7934       72.1613      
311           7.99734       14.798        72.156       
312           8.00181       14.8017       72.1503      
313           8.0064        14.8047       72.1445      
314           8.01119       14.8075       72.1388      
315           8.01616       14.8099       72.1325      
316           8.0212        14.8118       72.1254      
317           8.02619       14.8129       72.1172      
318           8.03096       14.8129       72.1079      
319           8.03547       14.812        72.098       
320           8.03976       14.8102       72.0881      
321           8.04394       14.8077       72.0787      
322           8.04811       14.8048       72.0699      
323           8.05231       14.8019       72.0619      
324           8.05653       14.7991       72.0543      
325           8.06069       14.7968       72.0467      
326           8.06473       14.7948       72.0389      
327           8.06858       14.7932       72.0306      
328           8.07226       14.7916       72.0221      
329           8.07582       14.79         72.0135      
330           8.07933       14.7883       72.0054      
331           8.08282       14.7865       71.998       
332           8.08629       14.7849       71.9915      
333           8.08971       14.7837       71.9858      
334           8.09303       14.7833       71.9807      
335           8.09627       14.7836       71.9758      
336           8.09711       14.7836       71.9739      
337           8.10087       14.7863       71.9672      
338           8.1049        14.7892       71.9593      
339           8.10595       14.7894       71.9565      
340           8.1107        14.7922       71.9466      
341           8.11527       14.7943       71.9378      
342           8.11621       14.7943       71.9354      
343           8.12002       14.7957       71.9291      
344           8.12355       14.7972       71.9235      
345           8.1243        14.7972       71.9215      
346           8.12779       14.801        71.9157      
347           8.12864       14.8019       71.9134      
348           8.13258       14.8088       71.9061      
349           8.13354       14.8101       71.9034      
350           8.13773       14.8167       71.8953      
351           8.13866       14.8175       71.8928      
352           8.1425        14.8207       71.8851      
353           8.14333       14.8208       71.8826      
354           8.14671       14.8219       71.8743      
355           8.14746       14.8217       71.8714      
356           8.14833       14.8219       71.8678      
357           8.15214       14.8264       71.855       
358           8.15307       14.8272       71.8509      
359           8.1541        14.8283       71.8463      
360           8.15847       14.8333       71.8312      
361           8.15936       14.8337       71.8275      
362           8.16025       14.8336       71.8239      
363           8.16381       14.8339       71.8137      
364           8.16458       14.8335       71.8108      
365           8.16539       14.8332       71.8078      
366           8.16904       14.8356       71.7983      
367           8.16984       14.8359       71.7953      
368           8.17071       14.8367       71.792       
369           8.17173       14.8382       71.7881      
370           8.17607       14.8452       71.7753      
371           8.17689       14.846        71.7719      
372           8.17761       14.8462       71.7686      
373           8.17835       14.8465       71.765       
374           8.18195       14.8491       71.7538      
375           8.18264       14.8493       71.751       
376           8.18335       14.8499       71.7483      
377           8.18418       14.8513       71.7456      
378           8.18795       14.8589       71.7375      
379           8.18867       14.8599       71.7355      
380           8.18934       14.8608       71.7335      
381           8.19002       14.862        71.7314      
382           8.19246       14.869        71.7247      
383           8.19285       14.8703       71.723       
384           8.19316       14.8718       71.7212      
385           8.19349       14.8738       71.7193      
386           8.19396       14.8765       71.717       
387           8.19643       14.8874       71.7091      
388           8.19704       14.8885       71.7069      
389           8.1977        14.889        71.7047      
390           8.19848       14.8894       71.7023      
391           8.19935       14.8905       71.6994      
392           8.20286       14.8968       71.6903      
393           8.20334       14.8979       71.6883      
394           8.20362       14.899        71.6866      
395           8.20385       14.9003       71.685       
396           8.20412       14.9023       71.6834      
397           8.20457       14.905        71.6814      
398           8.2077        14.917        71.6745      
399           8.20832       14.9182       71.6727      
400           8.20896       14.9188       71.6707      
401           8.20963       14.9193       71.6684      
402           8.21028       14.9201       71.6658      
403           8.21086       14.9214       71.6627      
404           8.21231       14.926        71.6527      
405           8.21237       14.9264       71.6506      
406           8.21227       14.9266       71.6491      
407           8.21215       14.9271       71.6479      
408           8.21212       14.9286       71.6468      
409           8.21235       14.9313       71.6453      
410           8.21446       14.9432       71.6404      
411           8.21502       14.9447       71.6388      
412           8.21561       14.9456       71.637       
413           8.21623       14.9462       71.6349      
414           8.21678       14.9468       71.6323      
415           8.21715       14.9475       71.6293      
416           8.21798       14.9507       71.6215      
417           8.21789       14.9507       71.6202      
418           8.21771       14.9507       71.6197      
419           8.21757       14.9511       71.6198      
420           8.2176        14.9526       71.6201      
421           8.21791       14.9553       71.6203      
422           8.21995       14.9665       71.6201      
423           8.22044       14.968        71.6192      
424           8.22086       14.969        71.6176      
425           8.22121       14.9698       71.6156      
426           8.2214        14.9707       71.6131      
427           8.22137       14.9717       71.6102      
428           8.22203       14.9767       71.6045      
429           8.2219        14.9769       71.6039      
430           8.22184       14.9768       71.6045      
431           8.22194       14.9769       71.6058      
432           8.22227       14.9776       71.6077      
433           8.22286       14.9792       71.6095      
434           8.22514       14.9881       71.6148      
435           8.22549       14.9895       71.6146      
436           8.22563       14.9908       71.6137      
437           8.22555       14.9923       71.6121      
438           8.22522       14.9941       71.6101      
439           8.22463       14.9963       71.6078      
440           8.22392       14.9987       71.6057      
441           8.22329       15.0013       71.6042      
442           8.22299       15.0035       71.6035      
443           8.22311       15.0053       71.6035      
444           8.22364       15.0066       71.6039      
445           8.22439       15.0077       71.6044      
446           8.22523       15.0086       71.6049      
447           8.22598       15.0097       71.6051      
448           8.22655       15.0109       71.605       
449           8.22681       15.0123       71.6048      
450           8.22675       15.014        71.6044      
451           8.22641       15.0158       71.6039      
452           8.2259        15.0179       71.6035      
453           8.22536       15.0204       71.6032      
454           8.22494       15.0231       71.603       
455           8.22475       15.0259       71.603       
456           8.22483       15.0284       71.6032      
457           8.22514       15.0307       71.6036      
458           8.22561       15.0323       71.6043      
459           8.2261        15.0335       71.6051      
460           8.22651       15.0343       71.6061      
461           8.22675       15.0349       71.6073      
462           8.22678       15.0357       71.6086      
463           8.2266        15.0368       71.6099      
464           8.22629       15.0384       71.6111      
465           8.22594       15.0407       71.6122      
466           8.22566       15.0435       71.6132      
467           8.22552       15.0466       71.6141      
468           8.22556       15.0496       71.6147      
469           8.22575       15.0524       71.6153      
470           8.22605       15.0546       71.6157      
471           8.22636       15.0561       71.616       
472           8.22661       15.057        71.6162      
473           8.22674       15.0575       71.6163      
474           8.22674       15.0579       71.6163      
475           8.22664       15.0583       71.6163      
476           8.22649       15.0592       71.6163      
477           8.22633       15.0604       71.6164      
478           8.22625       15.062        71.6165      
479           8.22624       15.0639       71.6168      
480           8.22634       15.0658       71.6171      
481           8.2265        15.0677       71.6176      
482           8.22668       15.0694       71.6182      
483           8.22684       15.0708       71.619       
484           8.22694       15.0721       71.6198      
485           8.22695       15.0733       71.6206      
486           8.2269        15.0745       71.6215      
487           8.22681       15.0758       71.6224      
488           8.22674       15.0772       71.6233      
489           8.2267        15.0786       71.6242      
490           8.22674       15.0802       71.6251      
491           8.22684       15.0817       71.626       
492           8.22701       15.0832       71.6269      
493           8.22719       15.0845       71.6277      
494           8.22735       15.0858       71.6286      
495           8.22743       15.087        71.6295      
496           8.22743       15.0881       71.6304      
497           8.22734       15.0892       71.6313      
498           8.22719       15.0902       71.6323      
499           8.22702       15.0913       71.6334      
500           8.2269        15.0925       71.6346      
501           8.22686       15.0937       71.6358      
502           8.22694       15.0949       71.637       
503           8.2271        15.0962       71.6384      
504           8.22734       15.0976       71.6397      
505           8.2276        15.0988       71.641       
506           8.22782       15.1          71.6423      
507           8.22796       15.1012       71.6435      
508           8.22799       15.1022       71.6446      
509           8.2279        15.1032       71.6457      
510           8.22774       15.1041       71.6467      
511           8.22753       15.1051       71.6476      
512           8.22736       15.1061       71.6485      
513           8.22726       15.1071       71.6493      
514           8.22726       15.1082       71.6501      
515           8.22736       15.1093       71.6508      
516           8.22755       15.1104       71.6515      
517           8.22778       15.1114       71.6522      
518           8.228         15.1124       71.6529      
519           8.22816       15.1134       71.6536      
520           8.22823       15.1143       71.6543      
521           8.22819       15.1152       71.655       
522           8.22807       15.1161       71.6557      
523           8.22789       15.1169       71.6564      
524           8.22771       15.1178       71.6571      
525           8.22756       15.1188       71.6578      
526           8.22749       15.1198       71.6586      
527           8.22751       15.1208       71.6593      
528           8.22762       15.1218       71.66        
529           8.22779       15.1228       71.6607      
530           8.22799       15.1238       71.6614      
531           8.22817       15.1247       71.6621      
532           8.22829       15.1256       71.6628      