# Probe 0 (-1 0 0)
# Probe 1 (1 0 0)
# Probe 2 (1.7 0 0)
# Time        0             1             2            
0             (0 0 0)       (0 0 0)       (0 0 0)      
1             (6.70313 0.0256262 -0.0947798) (2.08194 -0.00944244 -0.0210324) (4.45725 -0.0158454 0.0516438)
2             (13.9615 0.0250385 -0.0669141) (5.4532 -0.0206848 -0.0341922) (10.0821 -0.0257156 0.0633965)
3             (29.6557 0.023813 -0.000888746) (10.8543 -0.0412834 -0.0738806) (20.6401 -0.047841 0.145218)
4             (39.5926 0.0354146 -0.0180993) (16.1099 -0.0588735 -0.127957) (28.7807 -0.0699021 0.2441)
5             (35.8142 0.0326965 -0.0448313) (16.549 -0.057435 -0.141847) (27.4376 -0.08301 0.265705)
6             (26.7962 0.0253179 -0.0600327) (14.6926 -0.0522938 -0.130626) (22.3752 -0.0904347 0.198806)
7             (21.1683 0.021689 -0.0662299) (13.3877 -0.0538667 -0.133387) (19.1169 -0.0730385 0.101174)
8             (23.7236 0.0264999 -0.0663495) (13.9183 -0.0629459 -0.160078) (20.3793 -0.0501352 0.0585502)
9             (29.4952 0.0336982 -0.0538919) (15.4482 -0.0728839 -0.186933) (23.9163 -0.0439688 0.0757062)
10            (33.4464 0.0358927 -0.0223291) (16.5949 -0.0782686 -0.194277) (26.6345 -0.0597692 0.0974055)
11            (32.6005 0.031387 0.0104288) (16.6913 -0.0787014 -0.188043) (26.8603 -0.0753051 0.0860542)
12            (29.8721 0.0242736 0.0208259) (16.0066 -0.0769342 -0.1848) (25.5968 -0.0772389 0.0545044)
13            (28.0909 0.0186363 0.00550091) (15.2203 -0.0755148 -0.194276) (24.6064 -0.0643449 0.0373832)
14            (28.9994 0.0158743 -0.0134709) (14.8401 -0.0750919 -0.211491) (24.963 -0.0491959 0.0525742)
15            (31.0543 0.014096 -0.0126507) (14.8638 -0.0746643 -0.223797) (26.2196 -0.0421555 0.0860437)
16            (32.5738 0.0114114 0.00980847) (15.0035 -0.0730404 -0.22473) (27.4219 -0.0460554 0.112749)
17            (32.4252 0.00804853 0.0318816) (14.9801 -0.0694863 -0.215163) (27.856 -0.0529927 0.120779)
18            (31.5521 0.00492216 0.0327918) (14.7737 -0.0640198 -0.200275) (27.687 -0.0584374 0.118251)
19            (31.0142 0.00233809 0.0131813) (14.5625 -0.0571383 -0.183848) (27.4341 -0.0606483 0.121243)
20            (31.2678 -0.000403365 -0.00828166) (14.5523 -0.0498849 -0.1672) (27.4941 -0.0613089 0.139701)
21            (31.9844 -0.00455497 -0.0144022) (14.7822 -0.0430228 -0.149663) (27.8343 -0.0633806 0.168439)
22            (32.5267 -0.0106713 -0.00360147) (15.1777 -0.0366916 -0.13069) (28.2106 -0.0683837 0.195949)
23            (32.5721 -0.0174215 0.0101412) (15.6187 -0.0302985 -0.110314) (28.3545 -0.0748884 0.212976)
24            (32.2986 -0.0237824 0.0144362) (16.0482 -0.0234469 -0.089008) (28.1979 -0.0801356 0.218794)
25            (32.0531 -0.0284754 0.00736181) (16.4876 -0.0161891 -0.0682834) (27.8655 -0.0823486 0.219668)
26            (32.037 -0.0317268 -0.00277781) (16.9935 -0.00918036 -0.0499603) (27.5554 -0.0818688 0.222502)
27            (32.2074 -0.0348976 -0.0080672) (17.6004 -0.00338359 -0.0357485) (27.3983 -0.0806577 0.229238)
28            (32.3577 -0.0390555 -0.00548912) (18.283 0.000649715 -0.0258418) (27.3531 -0.0805382 0.234382)
29            (32.3425 -0.0437343 0.000364511) (18.984 0.00300816 -0.0192157) (27.2815 -0.0818982 0.232004)
30            (32.1682 -0.0476131 0.0038839) (19.6635 0.00388694 -0.0146712) (27.0988 -0.0835848 0.219192)
31            (31.9668 -0.0498233 0.00289271) (20.3097 0.0035148 -0.0111309) (26.8378 -0.0840226 0.198651)
32            (31.8399 -0.0504028 -0.000313173) (20.9256 0.00214991 -0.00846493) (26.5663 -0.0825063 0.175036)
33            (31.803 -0.0504547 -0.0020723) (21.5201 1.77126e-05 -0.00709899) (26.3533 -0.079512 0.152484)
34            (31.7988 -0.0506226 -0.00140505) (22.1026 -0.00279533 -0.00717723) (26.2442 -0.0759773 0.133189)
35            (31.7616 -0.0507577 0.00115066) (22.6696 -0.00619281 -0.00836847) (26.2369 -0.0724571 0.116868)
36            (31.6727 -0.0503458 0.00495796) (23.2027 -0.00980427 -0.0100568) (26.2849 -0.0688851 0.101434)
37            (31.5542 -0.0493681 0.00976852) (23.6875 -0.0129725 -0.0113032) (26.3519 -0.0646829 0.0870243)
38            (31.4452 -0.0478767 0.0142128) (24.1187 -0.0151724 -0.0113877) (26.4257 -0.0591586 0.0750573)
39            (31.3691 -0.0459062 0.0165864) (24.4977 -0.0161578 -0.00973404) (26.5061 -0.0522201 0.0658191)
40            (31.3195 -0.0438207 0.0170272) (24.8386 -0.0158993 -0.00631859) (26.6145 -0.0443827 0.0593742)
41            (31.2705 -0.0417806 0.0169889) (25.1553 -0.0144044 -0.00162305) (26.7714 -0.03624 0.0552861)
42            (31.215 -0.0396856 0.0171483) (25.4518 -0.011758 0.00440562) (26.9636 -0.0285084 0.052417)
43            (31.1476 -0.0375517 0.0183099) (25.7278 -0.00800507 0.012174) (27.1664 -0.0215815 0.0505957)
44            (31.0703 -0.0354842 0.0203603) (25.9844 -0.00328901 0.0219143) (27.3567 -0.0154067 0.0502745)
45            (31.0014 -0.0334049 0.0218252) (26.2378 0.00199413 0.0328312) (27.5326 -0.0099289 0.0508602)
46            (30.9436 -0.0312681 0.0219124) (26.5017 0.00743665 0.0441752) (27.6988 -0.00541686 0.051376)
47            (30.8942 -0.0289994 0.02067) (26.7742 0.0126956 0.0553782) (27.854 -0.00221818 0.0513398)
48            (30.8494 -0.0265717 0.0189652) (27.0514 0.0174725 0.0666384) (27.9907 -0.000234081 0.051541)
49            (30.8062 -0.0242618 0.0186653) (27.338 0.0214862 0.0783614) (28.0989 0.000603553 0.0517806)
50            (30.764 -0.0221125 0.0200645) (27.6404 0.0246625 0.0902513) (28.1733 0.000542191 0.0516402)
51            (30.7253 -0.0200152 0.0220081) (27.9654 0.0269724 0.101236) (28.2207 -8.55976e-05 0.050613)
52            (30.6889 -0.0179338 0.0233151) (28.3044 0.0284616 0.110339) (28.2349 -0.000803288 0.0483617)
53            (30.6506 -0.0159543 0.0237236) (28.6442 0.029087 0.117458) (28.2114 -0.00108391 0.046291)
54            (30.61 -0.0139588 0.0233364) (28.9806 0.0288137 0.123495) (28.1507 -0.00091953 0.0452932)
55            (30.5707 -0.011863 0.0226496) (29.3116 0.0276628 0.128475) (28.0594 -0.000384498 0.0458199)
56            (30.5325 -0.00968427 0.0219842) (29.6409 0.0257297 0.131456) (27.9488 0.000514822 0.0473323)
57            (30.4962 -0.00759716 0.0218081) (29.9568 0.0231308 0.131255) (27.8109 0.00196033 0.048454)
58            (30.4623 -0.00564038 0.0219988) (30.2532 0.0200083 0.127538) (27.6462 0.00413625 0.0490471)
59            (30.4346 -0.00385309 0.0224766) (30.5456 0.0165492 0.121004) (27.4772 0.00698684 0.0508274)
60            (30.4125 -0.00206181 0.0227212) (30.8231 0.0127215 0.111973) (27.3038 0.0101752 0.054712)
61            (30.3956 -0.000168237 0.0223369) (31.0727 0.00845851 0.100657) (27.1248 0.0133527 0.0604167)
62            (30.3813 0.00178649 0.0214528) (31.2889 0.00376429 0.0867697) (26.9419 0.0163684 0.0673198)
63            (30.3667 0.00369582 0.0206186) (31.4746 -0.00127518 0.0701097) (26.7621 0.019246 0.0748819)
64            (30.3506 0.00547639 0.0203237) (31.6356 -0.00647032 0.0504112) (26.5972 0.022062 0.0822045)
65            (30.3339 0.00710592 0.0206268) (31.7721 -0.0114216 0.027663) (26.4593 0.0248846 0.0878917)
66            (30.3169 0.00861123 0.021159) (31.8785 -0.0156541 0.00333818) (26.3599 0.0276995 0.0909884)
67            (30.298 0.00999601 0.0213691) (31.944 -0.0189683 -0.020877) (26.3186 0.030392 0.0920779)
68            (30.2806 0.0111406 0.0210772) (31.951 -0.0217233 -0.0436719) (26.3516 0.0327517 0.0926771)
69            (30.2671 0.0119509 0.0206367) (31.8889 -0.0244091 -0.0635541) (26.441 0.0344537 0.092768)
70            (30.2541 0.0125384 0.0199998) (31.7753 -0.0270381 -0.0788404) (26.576 0.0355228 0.0926312)
71            (30.2425 0.0128721 0.0191329) (31.6403 -0.0292798 -0.0889681) (26.7592 0.036258 0.0927767)
72            (30.2335 0.0128628 0.0181299) (31.5102 -0.0307543 -0.0925713) (26.9879 0.0368417 0.0925589)
73            (30.227 0.0124569 0.0171049) (31.4 -0.0312381 -0.0886069) (27.2495 0.03713 0.0906148)
74            (30.2212 0.011684 0.0160421) (31.3083 -0.030792 -0.0780973) (27.5226 0.0368271 0.0856339)
75            (30.2133 0.0106229 0.0147184) (31.2239 -0.0297264 -0.0640363) (27.7929 0.035773 0.0776741)
76            (30.2042 0.0092768 0.0131396) (31.1395 -0.0284953 -0.0496508) (28.0688 0.0341329 0.0684326)
77            (30.195 0.00768256 0.0114987) (31.0549 -0.0274936 -0.036919) (28.3514 0.031991 0.0586096)
78            (30.186 0.00595166 0.00993521) (30.9763 -0.0268061 -0.0262776) (28.6296 0.0291673 0.0477299)
79            (30.1781 0.00419623 0.00850599) (30.9159 -0.0262116 -0.0169959) (28.8894 0.0255144 0.035387)
80            (30.1717 0.00249706 0.00725138) (30.8837 -0.0254539 -0.00816663) (29.1167 0.0211571 0.0216868)
81            (30.1667 0.000901338 0.00620619) (30.8788 -0.0244672 0.000254708) (29.304 0.0164541 0.00714896)
82            (30.1634 -0.00057464 0.00538527) (30.892 -0.0233381 0.00785724) (29.4485 0.0115015 -0.00779747)
83            (30.1602 -0.00192298 0.00474161) (30.9106 -0.0221694 0.0141517) (29.5655 0.00587693 -0.0231557)
84            (30.157 -0.00292306 0.00427671) (30.9249 -0.0211147 0.0190623) (29.6435 0.000995236 -0.0367905)
85            (30.154 -0.00387185 0.00374547) (30.9306 -0.0202538 0.0222388) (29.6788 -0.00230372 -0.050451)
86            (30.1512 -0.00477066 0.00328452) (30.9264 -0.0194953 0.0233297) (29.6801 -0.00399495 -0.0627535)
87            (30.1485 -0.00570161 0.00284104) (30.9132 -0.0187118 0.0222604) (29.6602 -0.00504844 -0.0751994)
88            (30.1463 -0.00632472 0.00239614) (30.8927 -0.0178319 0.0193772) (29.6152 -0.00600346 -0.0901219)
89            (30.1446 -0.00687783 0.00215286) (30.8658 -0.0166625 0.015595) (29.5304 -0.0069364 -0.104216)
90            (30.1435 -0.00735202 0.00198984) (30.8338 -0.0151264 0.0109966) (29.4181 -0.0071942 -0.116788)
91            (30.1431 -0.00773978 0.0018647) (30.7985 -0.0132129 0.00602893) (29.2928 -0.00659646 -0.128073)
92            (30.1433 -0.00804441 0.00174473) (30.7624 -0.0109672 0.00155189) (29.1612 -0.00559037 -0.139019)
93            (30.144 -0.00828006 0.00162338) (30.7277 -0.00853652 -0.00150474) (29.0239 -0.00475857 -0.150215)
94            (30.1451 -0.00846385 0.00151367) (30.6951 -0.00614681 -0.00263686) (28.881 -0.00438806 -0.161327)
95            (30.1462 -0.00860858 0.00143294) (30.664 -0.00398247 -0.00197675) (28.7357 -0.00440374 -0.171393)
96            (30.1474 -0.0087222 0.0013952) (30.6345 -0.00212053 -8.52834e-05) (28.5943 -0.00458014 -0.179337)
97            (30.1487 -0.00881762 0.00140592) (30.6076 -0.000521864 0.00263013) (28.4648 -0.00464984 -0.184509)
98            (30.15 -0.00887567 0.00148306) (30.5848 0.000813492 0.00602825) (28.354 -0.00454543 -0.186428)
99            (30.1512 -0.00891402 0.00158111) (30.5682 0.00214083 0.0105895) (28.2679 -0.00456602 -0.185255)
100           (30.1523 -0.00893749 0.00171904) (30.5561 0.0035625 0.0162233) (28.2054 -0.004772 -0.181166)
101           (30.1526 -0.0089498 0.00183985) (30.5462 0.00513933 0.0218461) (28.1629 -0.00515318 -0.175019)
102           (30.1522 -0.00895094 0.00193559) (30.5362 0.00676998 0.0259259) (28.1326 -0.00557083 -0.168231)
103           (30.1509 -0.00894701 0.00201826) (30.5227 0.00828317 0.0274477) (28.1066 -0.00551389 -0.161684)
104           (30.1491 -0.00894778 0.00211586) (30.503 0.0096558 0.0261738) (28.088 -0.00474903 -0.154811)
105           (30.1472 -0.00894956 0.00222114) (30.4792 0.0109434 0.022879) (28.0775 -0.00349675 -0.147164)
106           (30.1462 -0.00894613 0.00229253) (30.4579 0.0122004 0.0188084) (28.0742 -0.00201897 -0.138548)
107           (30.1449 -0.0089234 0.00228876) (30.4455 0.0133586 0.0147246) (28.0784 -0.000388969 -0.129422)
108           (30.1432 -0.00887223 0.00217556) (30.4429 0.0144045 0.0106743) (28.0919 0.00114176 -0.120381)
109           (30.1418 -0.00884704 0.00210263) (30.4436 0.0152703 0.00611632) (28.1068 0.00254127 -0.111836)
110           (30.1401 -0.00884175 0.00210233) (30.4444 0.0158918 0.000657044) (28.1185 0.00377964 -0.103598)
111           (30.1388 -0.0088385 0.00213081) (30.4414 0.0163177 -0.00488249) (28.1156 0.00498312 -0.0957838)
112           (30.1374 -0.00881468 0.00209848) (30.4328 0.0165486 -0.00911037) (28.0973 0.00637232 -0.0880395)
113           (30.1351 -0.00874985 0.00190875) (30.4227 0.0165132 -0.0106593) (28.0721 0.00788762 -0.078773)
114           (30.1331 -0.00869121 0.00169873) (30.4121 0.0162211 -0.00898868) (28.0487 0.00943244 -0.0686011)
115           (30.1311 -0.00864707 0.00158789) (30.4002 0.0156027 -0.00439186) (28.0261 0.010919 -0.0589082)
116           (30.129 -0.00860451 0.00160221) (30.3862 0.0146409 0.00233521) (28.0048 0.0123784 -0.0513509)
117           (30.1273 -0.00855078 0.00167056) (30.3695 0.0134254 0.00953338) (27.9878 0.0139247 -0.0470162)
118           (30.1263 -0.0084839 0.0017022) (30.3494 0.0120966 0.0151765) (27.9803 0.0156643 -0.04583)
119           (30.126 -0.00840666 0.00166005) (30.3259 0.0107664 0.0178737) (27.9882 0.0175539 -0.046619)
120           (30.1262 -0.00831892 0.00157119) (30.2999 0.00947241 0.0177552) (28.0122 0.0193294 -0.0479253)
121           (30.1265 -0.00822816 0.00150798) (30.2713 0.00820847 0.016424) (28.0456 0.0206798 -0.0489231)
122           (30.1266 -0.00814376 0.00151849) (30.2393 0.00701281 0.0153973) (28.0821 0.0215385 -0.0492259)
123           (30.1265 -0.00807227 0.00161039) (30.2036 0.00597306 0.0148924) (28.1235 0.0220404 -0.0482789)
124           (30.1261 -0.00801096 0.00174631) (30.1659 0.00513401 0.0142295) (28.1614 0.0225187 -0.0454613)
125           (30.1255 -0.00795357 0.00187053) (30.1286 0.00445946 0.0126272) (28.2048 0.0227631 -0.0414979)
126           (30.1248 -0.00789687 0.0019474) (30.0954 0.00387865 0.00976119) (28.2495 0.0227128 -0.0371815)
127           (30.1242 -0.00784072 0.00198774) (30.0689 0.00334568 0.00608155) (28.2925 0.0223427 -0.0330275)
128           (30.1236 -0.00778666 0.00203282) (30.0491 0.0028644 0.00241324) (28.3327 0.0216239 -0.0291369)
129           (30.1231 -0.0077361 0.00211721) (30.0352 0.00245703 -0.000594078) (28.3704 0.0205858 -0.0253664)
130           (30.123 -0.00768962 0.00224045) (30.0267 0.00213157 -0.00289847) (28.4062 0.0193162 -0.0215067)
131           (30.1236 -0.00764798 0.00237496) (30.0248 0.00186812 -0.00488078) (28.4432 0.0178951 -0.0173735)
132           (30.1245 -0.00760227 0.00248534) (30.0301 0.00161354 -0.0067948) (28.483 0.0163365 -0.0130641)
133           (30.1249 -0.00754162 0.00252767) (30.0404 0.00134451 -0.00850016) (28.5192 0.0145868 -0.00900563)
134           (30.1251 -0.00749143 0.00256525) (30.052 0.00105988 -0.00948222) (28.5506 0.0125787 -0.00522067)
135           (30.1251 -0.00745908 0.00265369) (30.0626 0.000739583 -0.0091231) (28.578 0.0107371 -0.00150983)
136           (30.1251 -0.00743893 0.00278677) (30.0733 0.000355394 -0.00742307) (28.6044 0.0092126 0.00257262)
137           (30.125 -0.00742108 0.00291347) (30.0841 -9.37084e-05 -0.00516958) (28.6294 0.00794926 0.0067721)
138           (30.1251 -0.00739918 0.00299595) (30.0934 -0.000577659 -0.00332322) (28.6518 0.00683004 0.0104467)
139           (30.1252 -0.00737334 0.00303757) (30.0991 -0.00105832 -0.00232195) (28.671 0.00577144 0.0131261)
140           (30.1254 -0.00734795 0.00307045) (30.1004 -0.00149643 -0.00192961) (28.6865 0.00473756 0.0147638)
141           (30.1256 -0.00732656 0.00312286) (30.0972 -0.00184462 -0.00148212) (28.6988 0.00373313 0.0156744)
142           (30.1257 -0.00731051 0.00319853) (30.0899 -0.00206045 -0.000431822) (28.7077 0.00278349 0.0162807)
143           (30.1259 -0.00729928 0.00327938) (30.079 -0.00212637 0.00120357) (28.7124 0.00190296 0.0168154)
144           (30.1262 -0.00729041 0.00334364) (30.065 -0.00205148 0.00290669) (28.7105 0.00109329 0.0172046)
145           (30.1264 -0.00727978 0.00337927) (30.0493 -0.00187607 0.00415887) (28.7021 0.00039859 0.0174056)
146           (30.1264 -0.00727042 0.0033948) (30.034 -0.00164509 0.00484088) (28.69 -9.70364e-05 0.0174574)
147           (30.1264 -0.00726424 0.00341345) (30.0204 -0.00136592 0.00516379) (28.6746 -0.000534552 0.0171476)
148           (30.1263 -0.00726417 0.00345196) (30.0085 -0.00105504 0.00545529) (28.6559 -0.000889291 0.0166478)
149           (30.1262 -0.00726783 0.00350295) (29.9989 -0.000721074 0.00586294) (28.6341 -0.00119024 0.0162439)
150           (30.1259 -0.00727057 0.00354895) (29.9913 -0.000379433 0.00628874) (28.61 -0.00141031 0.0163151)
151           (30.1257 -0.00727141 0.00357552) (29.9863 -5.85446e-05 0.00654039) (28.5838 -0.00147717 0.016899)
152           (30.1255 -0.00727469 0.00358232) (29.9843 0.000235863 0.0064838) (28.5569 -0.00136197 0.0177402)
153           (30.1254 -0.00727864 0.00358365) (29.9854 0.000465469 0.00608981) (28.5307 -0.0011046 0.0184367)
154           (30.1253 -0.00728717 0.00359237) (29.987 0.000629187 0.00550681) (28.505 -0.000744078 0.0186291)
155           (30.1254 -0.00729483 0.00361622) (29.9894 0.000727842 0.00480913) (28.4811 -0.000391226 0.0184487)
156           (30.1253 -0.00730043 0.00363022) (29.991 0.00075101 0.00405672) (28.459 -4.98853e-05 0.0181933)
157           (30.1251 -0.00730566 0.00362539) (29.9926 0.000742252 0.00328762) (28.4405 0.000280702 0.018306)
158           (30.1247 -0.00731334 0.00360799) (29.9939 0.000688281 0.00241667) (28.4241 0.00058127 0.0185672)
159           (30.1242 -0.00732625 0.00359927) (29.9946 0.000608349 0.00145722) (28.4077 0.00081611 0.0185908)
160           (30.1239 -0.00734224 0.00360697) (29.995 0.000524202 0.00047667) (28.3917 0.00101489 0.0182089)
161           (30.1236 -0.00735578 0.00361029) (29.9952 0.000448808 -0.000403646) (28.379 0.00121207 0.0175018)
162           (30.1236 -0.00736467 0.0035977) (29.9942 0.000392038 -0.00110723) (28.3715 0.0014079 0.0162341)
163           (30.1236 -0.00737193 0.00357435) (29.9925 0.000340325 -0.00171481) (28.3645 0.0015204 0.0144803)
164           (30.1236 -0.00737896 0.00354389) (29.9896 0.000290109 -0.002176) (28.3577 0.00157012 0.0124195)
165           (30.1235 -0.00738718 0.00351315) (29.9852 0.000261945 -0.00247909) (28.3504 0.00162607 0.010261)
166           (30.1234 -0.00739614 0.00348695) (29.98 0.000259848 -0.00264869) (28.3412 0.00174333 0.00807259)
167           (30.123 -0.00740575 0.00346245) (29.9734 0.000287134 -0.00268332) (28.3283 0.00189902 0.00582335)
168           (30.1227 -0.00741808 0.00343471) (29.9671 0.000343506 -0.00260209) (28.3153 0.00209349 0.00363815)
169           (30.1225 -0.00743135 0.00339933) (29.9617 0.000417199 -0.00243933) (28.3025 0.00229122 0.00137002)
170           (30.1223 -0.00744349 0.00335385) (29.957 0.000504 -0.00224233) (28.29 0.00243725 -0.0010613)
171           (30.1223 -0.00745352 0.00329941) (29.9531 0.000604684 -0.00205769) (28.2778 0.00250925 -0.00358004)
172           (30.1223 -0.00746132 0.00323889) (29.95 0.000718754 -0.00191175) (28.2658 0.00252676 -0.00607361)
173           (30.1223 -0.00746832 0.00317703) (29.9477 0.000843821 -0.00180983) (28.2536 0.00252776 -0.00849238)
174           (30.1223 -0.00747595 0.00311805) (29.946 0.000977578 -0.00174927) (28.2407 0.00254618 -0.0108555)
175           (30.1223 -0.00748442 0.00306196) (29.9447 0.00111838 -0.00172088) (28.2272 0.0026022 -0.0131546)
176           (30.1222 -0.00749322 0.0030061) (29.9436 0.00126583 -0.00171873) (28.2129 0.00270196 -0.0153598)
177           (30.1221 -0.00750172 0.00294754) (29.9428 0.00141466 -0.00174352) (28.1973 0.00283622 -0.0174707)
178           (30.1218 -0.00750972 0.00288447) (29.9423 0.00156113 -0.0017639) (28.1819 0.00299737 -0.0192687)
179           (30.1217 -0.00751768 0.00281857) (29.9424 0.00169797 -0.00175761) (28.1681 0.00317509 -0.0206103)
180           (30.1217 -0.00752471 0.00275307) (29.943 0.00181784 -0.00172165) (28.1559 0.0033433 -0.0215758)
181           (30.1218 -0.00752902 0.00268715) (29.9438 0.00192005 -0.00166408) (28.1439 0.00347915 -0.0223448)
182           (30.1219 -0.00753143 0.00262025) (29.9446 0.00200629 -0.00159621) (28.1316 0.0035939 -0.023)
183           (30.122 -0.00753332 0.00255372) (29.9451 0.00207387 -0.00152623) (28.119 0.00371626 -0.0235193)
184           (30.1222 -0.00753554 0.0024895) (29.9451 0.00212459 -0.00144804) (28.1061 0.00386393 -0.0238723)
185           (30.1223 -0.00753853 0.00242812) (29.9449 0.0021695 -0.00133299) (28.094 0.00403834 -0.024049)
186           (30.1224 -0.00754171 0.00236809) (29.9447 0.00220663 -0.00115386) (28.0838 0.00422555 -0.024055)
187           (30.1226 -0.00754413 0.00230675) (29.9447 0.00222636 -0.000950734) (28.0749 0.00438145 -0.0240461)
188           (30.1227 -0.00754603 0.0022447) (29.9446 0.00223114 -0.00076668) (28.0671 0.00448694 -0.0240998)
189           (30.1229 -0.00754752 0.00218373) (29.9442 0.00222417 -0.000633509) (28.0599 0.00455571 -0.0242636)
190           (30.1231 -0.00754871 0.00212535) (29.9433 0.00221074 -0.000555164) (28.0524 0.00460704 -0.0245619)
191           (30.1234 -0.00754973 0.00207025) (29.9416 0.00219538 -0.000513468) (28.0447 0.00465414 -0.0249536)
192           (30.1237 -0.00755067 0.00201824) (29.9396 0.00217967 -0.000495671) (28.0373 0.00470279 -0.0253825)
193           (30.124 -0.00755161 0.00196874) (29.9376 0.0021641 -0.000511702) (28.0309 0.00474999 -0.0258299)
194           (30.1244 -0.00755263 0.00192125) (29.9359 0.00214877 -0.000588911) (28.0259 0.00478365 -0.026323)
195           (30.1247 -0.00755373 0.00187562) (29.9346 0.00213429 -0.000751625) (28.0221 0.0047905 -0.0269069)
196           (30.1251 -0.00755525 0.001832) (29.9335 0.00212152 -0.000993518) (28.0192 0.00476116 -0.0275881)
197           (30.1255 -0.00755626 0.00179065) (29.9324 0.00211827 -0.00128266) (28.017 0.00470819 -0.028312)
198           (30.1259 -0.00755769 0.0017519) (29.9315 0.00212289 -0.00161324) (28.0152 0.00464375 -0.0290555)
199           (30.1263 -0.00755937 0.00171604) (29.9306 0.0021315 -0.00196802) (28.0128 0.00457992 -0.0298207)
200           (30.1267 -0.00756131 0.00168315) (29.9296 0.00215302 -0.00233937) (28.0095 0.00453063 -0.030581)
201           (30.1271 -0.0075633 0.00165303) (29.9288 0.00218999 -0.00272889) (28.0063 0.00451811 -0.0312474)
202           (30.1275 -0.00756535 0.00162566) (29.9282 0.00223868 -0.00313528) (28.0033 0.00454236 -0.0318379)
203           (30.128 -0.00756749 0.00160097) (29.928 0.00229709 -0.00354375) (28.0003 0.00458324 -0.0323846)
204           (30.1284 -0.00756971 0.00157879) (29.928 0.00236347 -0.0039357) (27.9972 0.00462472 -0.0329076)
205           (30.1288 -0.00757205 0.00155881) (29.9282 0.00243566 -0.00429652) (27.9939 0.00466622 -0.0334086)
206           (30.1292 -0.00757452 0.00154079) (29.9285 0.0025117 -0.00461461) (27.9902 0.00471698 -0.0338735)
207           (30.1296 -0.00757684 0.00152431) (29.9288 0.00259027 -0.00487719) (27.9864 0.00478467 -0.034279)
208           (30.1301 -0.00757887 0.00150911) (29.9291 0.00267019 -0.00507055) (27.9825 0.00486852 -0.0346013)
209           (30.1306 -0.00758071 0.00149479) (29.9293 0.00274768 -0.00519373) (27.9785 0.00496263 -0.034811)
210           (30.1311 -0.00758256 0.00147962) (29.9298 0.00282111 -0.00523698) (27.9757 0.00503713 -0.0348703)
211           (30.1316 -0.0075845 0.00146868) (29.9301 0.00289493 -0.00510891) (27.973 0.00511496 -0.0347991)
212           (30.1321 -0.00758644 0.0014619) (29.9302 0.00295978 -0.00487251) (27.9694 0.00520692 -0.0346926)
213           (30.1327 -0.00758831 0.00145419) (29.9301 0.00301059 -0.00467062) (27.9649 0.00528065 -0.0346388)
214           (30.1331 -0.00759022 0.00144764) (29.9297 0.00305501 -0.0044371) (27.9597 0.0053358 -0.0346867)
215           (30.1335 -0.00759221 0.00144374) (29.9287 0.00309431 -0.00402871) (27.9546 0.00542747 -0.0346442)
216           (30.1341 -0.0075942 0.00144116) (29.9271 0.00312814 -0.00348492) (27.949 0.0055571 -0.034548)
217           (30.1346 -0.00759603 0.00143776) (29.9254 0.00315418 -0.00295724) (27.9451 0.00565151 -0.0344999)
218           (30.135 -0.00759768 0.00143434) (29.9243 0.00316697 -0.00249923) (27.9437 0.005676 -0.0346011)
219           (30.1355 -0.00759919 0.00143243) (29.9233 0.00316634 -0.00207308) (27.9429 0.00566318 -0.0348951)
220           (30.1359 -0.00760058 0.00143203) (29.9226 0.00315488 -0.00168516) (27.9417 0.00563676 -0.0353872)
221           (30.1365 -0.00760193 0.0014325) (29.9214 0.00313675 -0.00129709) (27.9395 0.00562402 -0.0359655)
222           (30.137 -0.0076033 0.00143213) (29.9194 0.00312284 -0.000927429) (27.9358 0.00562496 -0.0366067)
223           (30.1375 -0.00760461 0.00143149) (29.9172 0.00311351 -0.000572209) (27.9331 0.00564275 -0.0371689)
224           (30.138 -0.00760587 0.00143088) (29.9149 0.0031037 -0.000250263) (27.9313 0.00566059 -0.0377166)
225           (30.1385 -0.00760711 0.00143081) (29.913 0.00309081 1.56749e-05) (27.9305 0.00565876 -0.0383153)
226           (30.139 -0.00760836 0.00143143) (29.9114 0.00307426 0.000215415) (27.9306 0.00563226 -0.03899)
227           (30.1395 -0.00760966 0.00143239) (29.9102 0.00305459 0.000353054) (27.931 0.00558989 -0.0397314)
228           (30.14 -0.00761099 0.00143334) (29.9092 0.00303338 0.000435159) (27.9312 0.00554475 -0.0405133)
229           (30.1405 -0.00761226 0.00143375) (29.9082 0.00301311 0.000463453) (27.9306 0.00550764 -0.0412983)
230           (30.1411 -0.00761355 0.00143414) (29.9072 0.00299628 0.000437708) (27.9297 0.0054856 -0.0420314)
231           (30.1416 -0.00761454 0.00143412) (29.9063 0.00298353 0.000361547) (27.9289 0.00548063 -0.0426733)
232           (30.1421 -0.00761546 0.00143394) (29.9056 0.00297636 0.000249849) (27.9285 0.00548531 -0.0432423)
233           (30.1426 -0.00761651 0.00143413) (29.9052 0.00297588 0.000117415) (27.9286 0.00548938 -0.0437758)
234           (30.1431 -0.00761776 0.00143498) (29.9052 0.00298053 -3.64355e-05) (27.929 0.005488 -0.0442975)
235           (30.1436 -0.00761916 0.00143618) (29.9056 0.00298716 -0.000222481) (27.9294 0.00548352 -0.0448025)
236           (30.1441 -0.00762062 0.00143714) (29.9063 0.00299367 -0.000444311) (27.9295 0.00548212 -0.0452602)
237           (30.1446 -0.00762212 0.00143755) (29.9072 0.0030004 -0.000687319) (27.9293 0.00548943 -0.0456295)
238           (30.1451 -0.00762365 0.00143745) (29.9081 0.00300948 -0.000923241) (27.9286 0.00550775 -0.0458772)
239           (30.1456 -0.00762515 0.00143707) (29.9089 0.00302308 -0.00112624) (27.9278 0.00553546 -0.0459924)
240           (30.1461 -0.00762648 0.00143652) (29.9098 0.00304186 -0.00128725) (27.9269 0.00556853 -0.0459937)
241           (30.1466 -0.00762762 0.00143587) (29.9107 0.00306457 -0.0014147) (27.9259 0.00560266 -0.0459223)
242           (30.1471 -0.00762876 0.00143542) (29.9117 0.00308906 -0.00152073) (27.9248 0.00563464 -0.0458206)
243           (30.1476 -0.00763017 0.00143552) (29.9128 0.00311329 -0.00160878) (27.9236 0.00566254 -0.0457094)
244           (30.1481 -0.0076319 0.00143613) (29.9138 0.00313557 -0.00167335) (27.9222 0.00568589 -0.0455813)
245           (30.1486 -0.00763386 0.00143677) (29.9148 0.00315496 -0.00170483) (27.9206 0.00570516 -0.045411)
246           (30.1491 -0.0076359 0.00143676) (29.9156 0.00317158 -0.00169507) (27.919 0.00572094 -0.0451774)
247           (30.1495 -0.00763788 0.00143581) (29.9162 0.00318674 -0.00164249) (27.9173 0.0057337 -0.0448839)
248           (30.15 -0.00763964 0.00143419) (29.9166 0.00320192 -0.00155264) (27.9155 0.00574377 -0.0445621)
249           (30.1505 -0.00764117 0.00143259) (29.9169 0.00321762 -0.00143119) (27.9138 0.00575067 -0.0442503)
250           (30.151 -0.0076428 0.00143185) (29.9171 0.00323095 -0.001286) (27.9122 0.00575241 -0.0439942)
251           (30.1515 -0.00764477 0.00143242) (29.9171 0.00323876 -0.00113602) (27.9106 0.00574636 -0.0438195)
252           (30.1519 -0.00764697 0.00143357) (29.9171 0.00324242 -0.000971232) (27.9093 0.00573266 -0.0437144)
253           (30.1524 -0.00764941 0.00143399) (29.9169 0.00324162 -0.000802764) (27.9081 0.00571392 -0.0436733)
254           (30.1529 -0.00765194 0.00143369) (29.9166 0.0032386 -0.00063589) (27.9069 0.00569228 -0.0436778)
255           (30.1534 -0.00765378 0.0014326) (29.9161 0.00323459 -0.000445667) (27.9059 0.00566885 -0.0436985)
256           (30.1538 -0.00765537 0.00143053) (29.9156 0.00322972 -0.000243613) (27.9051 0.00564453 -0.0437284)
257           (30.1543 -0.00765731 0.00142832) (29.915 0.00322307 -5.05661e-05) (27.9046 0.00561878 -0.0437769)
258           (30.1548 -0.00765965 0.00142717) (29.9144 0.00321333 0.000118317) (27.9043 0.00559131 -0.0438741)
259           (30.1552 -0.00766212 0.00142755) (29.9137 0.00320086 0.000262183) (27.9043 0.00556257 -0.0440554)
260           (30.1556 -0.00766452 0.00142883) (29.9131 0.00318737 0.000390682) (27.9046 0.00553269 -0.0443368)
261           (30.156 -0.00766692 0.00142986) (29.9125 0.00317351 0.000513289) (27.9051 0.00550155 -0.0447027)
262           (30.1565 -0.00766938 0.00142994) (29.912 0.0031585 0.000631361) (27.9057 0.0054703 -0.0451137)
263           (30.1569 -0.00767194 0.00142907) (29.9116 0.00314241 0.000736959) (27.9063 0.00544204 -0.0455245)
264           (30.1573 -0.00767461 0.00142783) (29.9113 0.00312681 0.000818661) (27.9071 0.00541944 -0.0458999)
265           (30.1577 -0.00767716 0.00142655) (29.911 0.00311295 0.000869227) (27.9081 0.0054027 -0.0462255)
266           (30.1581 -0.00767952 0.00142542) (29.9108 0.0031007 0.000891136) (27.9092 0.00538942 -0.0465151)
267           (30.1585 -0.00768166 0.00142437) (29.9106 0.00308902 0.000894971) (27.9104 0.0053766 -0.0468019)
268           (30.159 -0.00768366 0.00142304) (29.9107 0.00307717 0.000890953) (27.9117 0.00536311 -0.0471158)
269           (30.1594 -0.0076858 0.00142175) (29.9108 0.00306542 0.000881451) (27.913 0.00535054 -0.0474612)
270           (30.1599 -0.00768804 0.00142042) (29.9111 0.00305475 0.0008617) (27.9144 0.00534146 -0.0478156)
271           (30.1603 -0.00769044 0.00141925) (29.9115 0.00304591 0.00082588) (27.9157 0.00533712 -0.0481432)
272           (30.1607 -0.007693 0.00141838) (29.912 0.00303884 0.000771411) (27.917 0.0053367 -0.0484095)