# y+ ()       
# Time        	patch         	min           	max           	average       
0             	nozzle_int	0.000000e+00	0.000000e+00	0.000000e+00
0             	nozzle_ext	0.000000e+00	0.000000e+00	0.000000e+00
0             	collector_int	0.000000e+00	0.000000e+00	0.000000e+00
0             	collector_ext	0.000000e+00	0.000000e+00	0.000000e+00
0             	diffuser_int	0.000000e+00	0.000000e+00	0.000000e+00
0             	diffuser_ext	0.000000e+00	0.000000e+00	0.000000e+00
10            	nozzle_int	4.861946e+00	6.392420e+02	9.224790e+01
10            	nozzle_ext	3.784225e-03	1.467577e+02	2.628997e+00
10            	collector_int	4.755936e+00	2.086863e+02	9.888063e+01
10            	collector_ext	6.046325e-02	8.153577e+01	8.404783e+00
10            	diffuser_int	8.539427e+00	5.782213e+02	1.553843e+02
10            	diffuser_ext	6.939740e-03	9.092205e+01	2.705485e+00
20            	nozzle_int	1.703670e+00	6.288156e+02	6.581933e+01
20            	nozzle_ext	3.773650e-03	1.196958e+02	1.794764e+00
20            	collector_int	3.708580e+00	2.137319e+02	6.577826e+01
20            	collector_ext	5.648977e-02	8.259147e+01	6.987949e+00
20            	diffuser_int	3.671740e+00	5.741993e+02	1.120813e+02
20            	diffuser_ext	8.237939e-03	8.866449e+01	2.844030e+00
30            	nozzle_int	3.011331e+00	6.540173e+02	5.444490e+01
30            	nozzle_ext	1.197047e-03	9.462731e+01	1.554504e+00
30            	collector_int	4.111684e+00	1.995024e+02	7.502385e+01
30            	collector_ext	2.522682e-02	5.890762e+01	5.980553e+00
30            	diffuser_int	3.811405e+00	3.893500e+02	8.646760e+01
30            	diffuser_ext	8.557280e-03	6.696566e+01	2.743096e+00
40            	nozzle_int	2.217130e+00	6.646108e+02	5.004851e+01
40            	nozzle_ext	5.573942e-03	9.459949e+01	1.389694e+00
40            	collector_int	5.965572e+00	3.461617e+02	1.053269e+02
40            	collector_ext	4.201130e-02	9.824510e+01	6.759192e+00
40            	diffuser_int	4.136832e+00	6.651872e+02	7.032848e+01
40            	diffuser_ext	5.968364e-03	1.054785e+02	4.647815e+00
50            	nozzle_int	1.875779e+00	6.675114e+02	4.873676e+01
50            	nozzle_ext	5.863184e-03	8.762157e+01	1.274476e+00
50            	collector_int	3.097517e+00	3.164552e+02	8.407783e+01
50            	collector_ext	4.767006e-02	8.489585e+01	7.906249e+00
50            	diffuser_int	2.846733e+00	5.754655e+02	6.211380e+01
50            	diffuser_ext	1.311162e-02	1.093941e+02	5.333791e+00
60            	nozzle_int	3.171886e+00	6.686101e+02	4.845630e+01
60            	nozzle_ext	1.062469e-02	8.586560e+01	1.198821e+00
60            	collector_int	3.858877e+00	1.620973e+02	7.698909e+01
60            	collector_ext	1.470604e-01	9.067671e+01	8.998984e+00
60            	diffuser_int	3.089353e+00	3.391802e+02	6.185989e+01
60            	diffuser_ext	1.015949e-02	1.091532e+02	5.743410e+00
70            	nozzle_int	2.626045e+00	6.668661e+02	4.842952e+01
70            	nozzle_ext	9.770494e-03	8.625622e+01	1.125185e+00
70            	collector_int	3.369137e+00	1.527425e+02	6.529230e+01
70            	collector_ext	1.159885e-01	8.701897e+01	9.464184e+00
70            	diffuser_int	3.603070e+00	5.603303e+02	6.460773e+01
70            	diffuser_ext	3.570743e-02	1.053473e+02	6.344265e+00
80            	nozzle_int	2.297525e+00	6.639843e+02	4.847511e+01
80            	nozzle_ext	2.701076e-03	8.487487e+01	1.083344e+00
80            	collector_int	2.427012e+00	1.561881e+02	5.861269e+01
80            	collector_ext	9.360829e-02	1.010507e+02	9.278049e+00
80            	diffuser_int	4.170643e+00	4.712025e+02	6.397183e+01
80            	diffuser_ext	1.457068e-02	1.008537e+02	6.430505e+00
90            	nozzle_int	2.178222e+00	6.670435e+02	4.853539e+01
90            	nozzle_ext	2.582588e-03	8.520175e+01	1.015327e+00
90            	collector_int	2.203981e+00	3.008710e+02	6.062389e+01
90            	collector_ext	7.034023e-02	1.256778e+02	8.926042e+00
90            	diffuser_int	3.643873e+00	3.652702e+02	5.885335e+01
90            	diffuser_ext	2.597675e-02	9.535595e+01	6.006860e+00
100           	nozzle_int	1.992003e+00	6.715363e+02	4.860393e+01
100           	nozzle_ext	1.650490e-03	8.590549e+01	9.717402e-01
100           	collector_int	3.260016e+00	3.457054e+02	6.402781e+01
100           	collector_ext	3.558306e-02	1.136845e+02	8.549367e+00
100           	diffuser_int	3.719269e+00	3.643849e+02	5.237004e+01
100           	diffuser_ext	4.749635e-02	9.089121e+01	5.914391e+00
110           	nozzle_int	2.059399e+00	6.734015e+02	4.867097e+01
110           	nozzle_ext	1.301575e-03	8.601713e+01	9.236889e-01
110           	collector_int	2.301885e+00	3.183912e+02	6.931648e+01
110           	collector_ext	6.149290e-02	1.172173e+02	8.392982e+00
110           	diffuser_int	3.023683e+00	3.957799e+02	4.671476e+01
110           	diffuser_ext	3.444251e-02	8.899299e+01	5.575716e+00
120           	nozzle_int	2.118350e+00	6.736725e+02	4.872145e+01
120           	nozzle_ext	1.382279e-03	8.525207e+01	8.954538e-01
120           	collector_int	2.443108e+00	1.863231e+02	7.297110e+01
120           	collector_ext	9.957358e-02	8.259538e+01	8.453853e+00
120           	diffuser_int	2.317848e+00	4.288182e+02	4.354424e+01
120           	diffuser_ext	1.529799e-02	8.879445e+01	5.591780e+00
130           	nozzle_int	2.187925e+00	6.733823e+02	4.874872e+01
130           	nozzle_ext	1.363328e-03	8.484540e+01	8.877716e-01
130           	collector_int	2.891104e+00	1.992712e+02	7.489501e+01
130           	collector_ext	4.048532e-02	8.314296e+01	8.812476e+00
130           	diffuser_int	3.265590e+00	4.326178e+02	4.171241e+01
130           	diffuser_ext	2.156352e-02	9.065677e+01	5.514475e+00
140           	nozzle_int	2.212894e+00	6.729415e+02	4.876781e+01
140           	nozzle_ext	3.718053e-03	8.563293e+01	8.838270e-01
140           	collector_int	5.350142e+00	2.011356e+02	7.634554e+01
140           	collector_ext	5.982564e-02	8.586153e+01	8.598419e+00
140           	diffuser_int	2.439249e+00	4.739674e+02	4.318267e+01
140           	diffuser_ext	1.530582e-02	9.195667e+01	5.532191e+00
150           	nozzle_int	2.197191e+00	6.726152e+02	4.878822e+01
150           	nozzle_ext	1.934213e-03	8.601534e+01	8.816081e-01
150           	collector_int	3.826118e+00	1.825324e+02	7.779848e+01
150           	collector_ext	4.936328e-02	8.514979e+01	8.870692e+00
150           	diffuser_int	2.037510e+00	4.871646e+02	4.561892e+01
150           	diffuser_ext	2.541164e-02	9.279225e+01	5.327209e+00
160           	nozzle_int	2.240285e+00	6.726502e+02	4.881280e+01
160           	nozzle_ext	9.420609e-04	8.595510e+01	8.807187e-01
160           	collector_int	4.102138e+00	1.917779e+02	7.886279e+01
160           	collector_ext	4.494015e-02	8.612208e+01	8.854998e+00
160           	diffuser_int	8.688724e-01	4.950168e+02	4.803655e+01
160           	diffuser_ext	6.085269e-03	9.342034e+01	5.060539e+00
170           	nozzle_int	2.263982e+00	6.730162e+02	4.884190e+01
170           	nozzle_ext	1.463923e-03	8.557639e+01	8.852185e-01
170           	collector_int	4.510758e+00	1.882281e+02	7.952947e+01
170           	collector_ext	8.240913e-02	8.613166e+01	9.128920e+00
170           	diffuser_int	1.950061e+00	4.949544e+02	5.011111e+01
170           	diffuser_ext	2.088836e-02	9.397292e+01	4.781273e+00
180           	nozzle_int	2.287739e+00	6.735124e+02	4.887335e+01
180           	nozzle_ext	1.953551e-03	8.529466e+01	8.892556e-01
180           	collector_int	4.608585e+00	1.992914e+02	7.989448e+01
180           	collector_ext	7.685952e-02	8.642261e+01	9.222627e+00
180           	diffuser_int	1.228431e+00	4.948576e+02	5.150356e+01
180           	diffuser_ext	1.519734e-02	9.445510e+01	4.703631e+00
190           	nozzle_int	2.306934e+00	6.739510e+02	4.890599e+01
190           	nozzle_ext	2.194470e-03	8.519638e+01	8.925971e-01
190           	collector_int	5.228369e+00	1.996427e+02	8.016650e+01
190           	collector_ext	3.748939e-02	8.631220e+01	9.167657e+00
190           	diffuser_int	1.784862e+00	4.959075e+02	5.317495e+01
190           	diffuser_ext	1.710404e-02	9.449025e+01	4.693079e+00
200           	nozzle_int	2.323318e+00	6.742513e+02	4.893592e+01
200           	nozzle_ext	1.666156e-03	8.517450e+01	8.954745e-01
200           	collector_int	5.351692e+00	2.013584e+02	8.040498e+01
200           	collector_ext	7.381583e-02	8.603788e+01	9.225755e+00
200           	diffuser_int	2.303380e+00	4.962780e+02	5.465224e+01
200           	diffuser_ext	2.290951e-02	9.430000e+01	4.766716e+00
210           	nozzle_int	2.339450e+00	6.744259e+02	4.895972e+01
210           	nozzle_ext	1.170993e-03	8.520004e+01	8.985421e-01
210           	collector_int	5.481162e+00	2.026338e+02	8.059259e+01
210           	collector_ext	3.643449e-02	8.586629e+01	9.239929e+00
210           	diffuser_int	1.907127e+00	4.964386e+02	5.572023e+01
210           	diffuser_ext	1.147772e-02	9.413067e+01	4.824414e+00
220           	nozzle_int	2.355992e+00	6.745194e+02	4.897653e+01
220           	nozzle_ext	2.713657e-03	8.522026e+01	9.016377e-01
220           	collector_int	5.553899e+00	2.028132e+02	8.072700e+01
220           	collector_ext	3.120167e-02	8.573684e+01	9.252664e+00
220           	diffuser_int	2.279773e+00	4.971035e+02	5.651409e+01
220           	diffuser_ext	2.533775e-02	9.413249e+01	4.834102e+00
230           	nozzle_int	2.373109e+00	6.745682e+02	4.898741e+01
230           	nozzle_ext	1.018191e-03	8.525279e+01	9.046635e-01
230           	collector_int	5.606471e+00	2.035654e+02	8.085416e+01
230           	collector_ext	9.592772e-02	8.565150e+01	9.246049e+00
230           	diffuser_int	2.108053e+00	4.977475e+02	5.712401e+01
230           	diffuser_ext	7.392942e-03	9.417242e+01	4.846784e+00
240           	nozzle_int	2.390433e+00	6.745935e+02	4.899405e+01
240           	nozzle_ext	1.400713e-03	8.529001e+01	9.074148e-01
240           	collector_int	5.674258e+00	2.044638e+02	8.097294e+01
240           	collector_ext	3.143776e-02	8.561180e+01	9.236116e+00
240           	diffuser_int	2.125594e+00	4.979711e+02	5.759152e+01
240           	diffuser_ext	1.862822e-02	9.421511e+01	4.829207e+00
250           	nozzle_int	2.407682e+00	6.746068e+02	4.899788e+01
250           	nozzle_ext	1.910889e-03	8.530954e+01	9.099422e-01
250           	collector_int	5.726828e+00	2.050694e+02	8.109338e+01
250           	collector_ext	6.467565e-02	8.559494e+01	9.231660e+00
250           	diffuser_int	1.937407e+00	4.982632e+02	5.794867e+01
250           	diffuser_ext	2.265502e-02	9.423490e+01	4.864080e+00
260           	nozzle_int	2.425046e+00	6.746140e+02	4.899998e+01
260           	nozzle_ext	8.360986e-04	8.532676e+01	9.123882e-01
260           	collector_int	5.769148e+00	2.057944e+02	8.121909e+01
260           	collector_ext	9.879889e-02	8.563394e+01	9.241875e+00
260           	diffuser_int	2.111406e+00	4.986201e+02	5.823510e+01
260           	diffuser_ext	4.325063e-03	9.428924e+01	4.923355e+00
270           	nozzle_int	2.441418e+00	6.746167e+02	4.900098e+01
270           	nozzle_ext	3.826463e-03	8.533414e+01	9.144086e-01
270           	collector_int	5.811132e+00	2.065409e+02	8.134676e+01
270           	collector_ext	2.222236e-02	8.567827e+01	9.259301e+00
270           	diffuser_int	1.956515e+00	4.989564e+02	5.847532e+01
270           	diffuser_ext	2.599421e-02	9.436778e+01	4.968381e+00
280           	nozzle_int	2.458249e+00	6.746177e+02	4.900144e+01
280           	nozzle_ext	2.200472e-03	8.533698e+01	9.163840e-01
280           	collector_int	5.845757e+00	2.071271e+02	8.146934e+01
280           	collector_ext	5.419485e-02	8.571140e+01	9.273418e+00
280           	diffuser_int	1.865748e+00	4.991993e+02	5.868436e+01
280           	diffuser_ext	2.435313e-02	9.444623e+01	4.989302e+00
290           	nozzle_int	2.474288e+00	6.746180e+02	4.900166e+01
290           	nozzle_ext	2.828025e-03	8.534034e+01	9.181507e-01
290           	collector_int	5.875433e+00	2.076491e+02	8.158048e+01
290           	collector_ext	4.555539e-02	8.573789e+01	9.281570e+00
290           	diffuser_int	2.034388e+00	4.992339e+02	5.886969e+01
290           	diffuser_ext	1.688226e-02	9.451699e+01	4.987236e+00
300           	nozzle_int	2.489884e+00	6.746185e+02	4.900179e+01
300           	nozzle_ext	2.119169e-03	8.534022e+01	9.198328e-01
300           	collector_int	5.902053e+00	2.081265e+02	8.167709e+01
300           	collector_ext	2.491829e-02	8.576286e+01	9.287417e+00
300           	diffuser_int	1.928271e+00	4.991143e+02	5.903902e+01
300           	diffuser_ext	1.290964e-02	9.457957e+01	4.978396e+00
310           	nozzle_int	2.505176e+00	6.746191e+02	4.900188e+01
310           	nozzle_ext	2.267675e-03	8.534390e+01	9.212891e-01
310           	collector_int	5.923750e+00	2.085176e+02	8.176216e+01
310           	collector_ext	6.187141e-02	8.578603e+01	9.294174e+00
310           	diffuser_int	2.147442e+00	4.989371e+02	5.919414e+01
310           	diffuser_ext	2.212072e-02	9.463399e+01	4.977015e+00
320           	nozzle_int	2.520281e+00	6.746197e+02	4.900196e+01
320           	nozzle_ext	2.082957e-03	8.533533e+01	9.228034e-01
320           	collector_int	5.940880e+00	2.088366e+02	8.183561e+01
320           	collector_ext	5.196935e-02	8.580872e+01	9.303311e+00
320           	diffuser_int	2.062357e+00	4.987797e+02	5.933362e+01
320           	diffuser_ext	1.408973e-02	9.468097e+01	4.979167e+00
330           	nozzle_int	2.535505e+00	6.746201e+02	4.900202e+01
330           	nozzle_ext	2.076130e-03	8.532469e+01	9.242902e-01
330           	collector_int	5.955543e+00	2.091131e+02	8.189755e+01
330           	collector_ext	5.468133e-02	8.582837e+01	9.312631e+00
330           	diffuser_int	1.908179e+00	4.986476e+02	5.945784e+01
330           	diffuser_ext	1.852631e-02	9.472076e+01	4.980217e+00
340           	nozzle_int	2.550916e+00	6.746203e+02	4.900207e+01
340           	nozzle_ext	1.595450e-03	8.533768e+01	9.258286e-01
340           	collector_int	5.968835e+00	2.093665e+02	8.194941e+01
340           	collector_ext	1.459883e-02	8.584308e+01	9.320613e+00
340           	diffuser_int	1.852061e+00	4.985106e+02	5.956768e+01
340           	diffuser_ext	2.017980e-02	9.475347e+01	4.980934e+00
350           	nozzle_int	2.566364e+00	6.746202e+02	4.900210e+01
350           	nozzle_ext	2.392889e-03	8.533727e+01	9.272987e-01
350           	collector_int	5.981167e+00	2.096028e+02	8.199226e+01
350           	collector_ext	9.912419e-02	8.585480e+01	9.326543e+00
350           	diffuser_int	1.750203e+00	4.983681e+02	5.966349e+01
350           	diffuser_ext	2.039304e-02	9.477962e+01	4.981107e+00
360           	nozzle_int	2.582095e+00	6.746201e+02	4.900213e+01
360           	nozzle_ext	8.840903e-04	8.531585e+01	9.288539e-01
360           	collector_int	5.992106e+00	2.098094e+02	8.202732e+01
360           	collector_ext	1.071992e-01	8.586418e+01	9.330761e+00
360           	diffuser_int	1.686189e+00	4.982426e+02	5.974606e+01
360           	diffuser_ext	2.253273e-02	9.479993e+01	4.978768e+00
370           	nozzle_int	2.598092e+00	6.746199e+02	4.900216e+01
370           	nozzle_ext	2.010570e-03	8.531918e+01	9.304006e-01
370           	collector_int	6.001389e+00	2.099813e+02	8.205560e+01
370           	collector_ext	7.863225e-02	8.587059e+01	9.334435e+00
370           	diffuser_int	1.655684e+00	4.981425e+02	5.981639e+01
370           	diffuser_ext	1.228803e-02	9.481527e+01	4.976779e+00
380           	nozzle_int	2.614305e+00	6.746198e+02	4.900220e+01
380           	nozzle_ext	1.959109e-03	8.531612e+01	9.319365e-01
380           	collector_int	6.009291e+00	2.101215e+02	8.207823e+01
380           	collector_ext	7.594820e-02	8.587401e+01	9.337912e+00
380           	diffuser_int	1.631427e+00	4.980762e+02	5.987593e+01
380           	diffuser_ext	9.682656e-03	9.482628e+01	4.974981e+00
390           	nozzle_int	2.631004e+00	6.746197e+02	4.900224e+01
390           	nozzle_ext	1.248577e-03	8.531675e+01	9.335278e-01
390           	collector_int	6.016237e+00	2.102420e+02	8.209643e+01
390           	collector_ext	6.237515e-02	8.587440e+01	9.340947e+00
390           	diffuser_int	1.614865e+00	4.980292e+02	5.992558e+01
390           	diffuser_ext	2.024046e-02	9.483344e+01	4.973561e+00
400           	nozzle_int	2.648091e+00	6.746197e+02	4.900229e+01
400           	nozzle_ext	1.886056e-03	8.531582e+01	9.351513e-01
400           	collector_int	6.022631e+00	2.103539e+02	8.211172e+01
400           	collector_ext	6.042737e-02	8.587373e+01	9.343578e+00
400           	diffuser_int	1.605231e+00	4.979993e+02	5.996704e+01
400           	diffuser_ext	1.032647e-02	9.483810e+01	4.972640e+00
410           	nozzle_int	2.665675e+00	6.746199e+02	4.900235e+01
410           	nozzle_ext	1.060436e-03	8.531503e+01	9.368493e-01
410           	collector_int	6.028760e+00	2.104629e+02	8.212497e+01
410           	collector_ext	3.801009e-02	8.587253e+01	9.345411e+00
410           	diffuser_int	1.601428e+00	4.979718e+02	6.000118e+01
410           	diffuser_ext	1.774207e-02	9.484124e+01	4.972753e+00
420           	nozzle_int	2.683702e+00	6.746202e+02	4.900242e+01
420           	nozzle_ext	6.367310e-04	8.531502e+01	9.385883e-01
420           	collector_int	6.034642e+00	2.105678e+02	8.213700e+01
420           	collector_ext	8.560372e-02	8.587132e+01	9.346820e+00
420           	diffuser_int	1.598801e+00	4.979462e+02	6.002899e+01
420           	diffuser_ext	9.119036e-03	9.484347e+01	4.973444e+00
430           	nozzle_int	2.702232e+00	6.746205e+02	4.900249e+01
430           	nozzle_ext	1.079890e-03	8.531378e+01	9.404431e-01
430           	collector_int	6.040170e+00	2.106674e+02	8.214851e+01
430           	collector_ext	3.136938e-02	8.587044e+01	9.347764e+00
430           	diffuser_int	1.596690e+00	4.979265e+02	6.005137e+01
430           	diffuser_ext	8.807446e-03	9.484557e+01	4.973498e+00
440           	nozzle_int	2.721207e+00	6.746209e+02	4.900256e+01
440           	nozzle_ext	1.440783e-03	8.531300e+01	9.423593e-01
440           	collector_int	6.045395e+00	2.107659e+02	8.216022e+01
440           	collector_ext	3.155530e-02	8.586936e+01	9.348960e+00
440           	diffuser_int	1.596421e+00	4.979041e+02	6.006908e+01
440           	diffuser_ext	1.842600e-02	9.484782e+01	4.973116e+00
450           	nozzle_int	2.740744e+00	6.746212e+02	4.900264e+01
450           	nozzle_ext	1.580153e-03	8.531204e+01	9.442862e-01
450           	collector_int	6.050572e+00	2.108696e+02	8.217257e+01
450           	collector_ext	1.305892e-01	8.586770e+01	9.350376e+00
450           	diffuser_int	1.595933e+00	4.978782e+02	6.008308e+01
450           	diffuser_ext	2.131101e-02	9.484978e+01	4.971794e+00
460           	nozzle_int	2.760843e+00	6.746208e+02	4.900268e+01
460           	nozzle_ext	4.933296e-04	8.531033e+01	9.463215e-01
460           	collector_int	6.055766e+00	2.109776e+02	8.218564e+01
460           	collector_ext	6.807281e-02	8.586533e+01	9.351598e+00
460           	diffuser_int	1.594731e+00	4.978468e+02	6.009409e+01
460           	diffuser_ext	8.781477e-03	9.485110e+01	4.970484e+00
470           	nozzle_int	2.781465e+00	6.746204e+02	4.900270e+01
470           	nozzle_ext	5.476101e-04	8.530749e+01	9.484234e-01
470           	collector_int	6.060821e+00	2.110877e+02	8.219947e+01
470           	collector_ext	1.138578e-01	8.586256e+01	9.352788e+00
470           	diffuser_int	1.594273e+00	4.978127e+02	6.010264e+01
470           	diffuser_ext	2.428187e-02	9.485194e+01	4.968851e+00
480           	nozzle_int	2.802656e+00	6.746200e+02	4.900276e+01
480           	nozzle_ext	1.373786e-03	8.530282e+01	9.506055e-01
480           	collector_int	6.065867e+00	2.112022e+02	8.221373e+01
480           	collector_ext	8.494617e-02	8.585944e+01	9.354015e+00
480           	diffuser_int	1.593614e+00	4.977759e+02	6.010925e+01
480           	diffuser_ext	1.523319e-02	9.485253e+01	4.966808e+00
490           	nozzle_int	2.824431e+00	6.746203e+02	4.900284e+01
490           	nozzle_ext	6.241127e-04	8.529520e+01	9.529805e-01
490           	collector_int	6.070984e+00	2.113187e+02	8.222790e+01
490           	collector_ext	7.904794e-02	8.585586e+01	9.355440e+00
490           	diffuser_int	1.592518e+00	4.977343e+02	6.011451e+01
490           	diffuser_ext	1.069347e-02	9.485285e+01	4.964678e+00
500           	nozzle_int	2.846841e+00	6.746208e+02	4.900295e+01
500           	nozzle_ext	1.293429e-03	8.527805e+01	9.553974e-01
500           	collector_int	6.076029e+00	2.114370e+02	8.224257e+01
500           	collector_ext	2.914001e-02	8.585209e+01	9.356720e+00
500           	diffuser_int	1.592509e+00	4.976900e+02	6.011888e+01
500           	diffuser_ext	5.909902e-03	9.485312e+01	4.962640e+00
