# y+ ()       
# Time        	patch         	min           	max           	average       
0             	nozzle_int	1.036364e+00	1.634939e+01	2.991698e+00
0             	nozzle_ext	3.922179e+00	2.005972e+01	1.037437e+01
0             	collector_int	9.978762e-01	1.494767e+01	4.961929e+00
0             	collector_ext	2.734141e+00	2.065271e+01	1.068041e+01
0             	diffuser_int	1.085515e+00	1.648185e+01	5.019208e+00
0             	diffuser_ext	2.235518e+00	1.916348e+01	1.076146e+01
10            	nozzle_int	1.523977e+00	1.268737e+02	5.417177e+00
10            	nozzle_ext	3.030746e+00	3.181788e+02	1.341876e+01
10            	collector_int	1.889983e+00	1.044545e+02	1.463059e+01
10            	collector_ext	2.414877e+00	2.112377e+02	2.128677e+01
10            	diffuser_int	4.257778e+00	2.165342e+02	1.302782e+01
10            	diffuser_ext	8.533152e-01	2.117017e+02	1.346668e+01
20            	nozzle_int	1.192406e+00	4.013676e+02	1.998857e+01
20            	nozzle_ext	2.834467e+00	5.984903e+02	1.427528e+01
20            	collector_int	2.300758e+00	1.198061e+02	3.368951e+01
20            	collector_ext	1.956673e+00	1.902008e+02	2.571779e+01
20            	diffuser_int	3.647812e+00	2.119621e+02	2.747847e+01
20            	diffuser_ext	7.855305e-01	1.775299e+02	1.352044e+01
30            	nozzle_int	7.975108e-01	5.047772e+02	5.049470e+01
30            	nozzle_ext	2.703177e+00	8.412101e+02	1.419918e+01
30            	collector_int	2.875185e+00	2.113808e+02	6.001080e+01
30            	collector_ext	3.046065e+00	2.096987e+02	3.064252e+01
30            	diffuser_int	3.647666e+00	4.077180e+02	5.513120e+01
30            	diffuser_ext	7.085115e-01	1.803977e+02	1.364105e+01
40            	nozzle_int	6.519704e-01	3.843250e+02	6.301986e+01
40            	nozzle_ext	2.731843e+00	7.761703e+02	1.393124e+01
40            	collector_int	3.476925e+00	2.463588e+02	8.582981e+01
40            	collector_ext	4.718497e+00	2.418639e+02	3.610175e+01
40            	diffuser_int	4.574494e+00	4.578086e+02	8.560610e+01
40            	diffuser_ext	6.749130e-01	4.316896e+02	1.797502e+01
50            	nozzle_int	6.078380e-01	3.540062e+02	6.038610e+01
50            	nozzle_ext	2.816498e+00	7.053502e+02	1.355662e+01
50            	collector_int	7.339835e+00	3.008967e+02	1.058547e+02
50            	collector_ext	5.646790e+00	4.837121e+02	4.454921e+01
50            	diffuser_int	7.771671e+00	4.756034e+02	1.087507e+02
50            	diffuser_ext	1.001718e+00	5.787600e+02	2.482871e+01
60            	nozzle_int	6.032827e-01	3.236618e+02	5.433762e+01
60            	nozzle_ext	2.893037e+00	6.588709e+02	1.310269e+01
60            	collector_int	1.238651e+01	2.697742e+02	1.159678e+02
60            	collector_ext	7.154889e+00	4.691379e+02	5.251565e+01
60            	diffuser_int	1.285989e+01	3.879820e+02	1.160410e+02
60            	diffuser_ext	1.227702e+00	1.070023e+03	3.701531e+01
70            	nozzle_int	6.033876e-01	2.860425e+02	4.940965e+01
70            	nozzle_ext	2.973995e+00	5.898579e+02	1.274134e+01
70            	collector_int	1.895504e+01	2.411621e+02	1.136974e+02
70            	collector_ext	7.345914e+00	4.415195e+02	6.463079e+01
70            	diffuser_int	1.125628e+01	4.624343e+02	1.156339e+02
70            	diffuser_ext	1.275649e+00	1.292270e+03	4.766705e+01
80            	nozzle_int	6.034043e-01	2.531061e+02	4.592911e+01
80            	nozzle_ext	3.075410e+00	5.236561e+02	1.251944e+01
80            	collector_int	1.867337e+01	4.322864e+02	1.102733e+02
80            	collector_ext	7.902192e+00	4.321398e+02	7.892086e+01
80            	diffuser_int	1.286503e+01	3.621106e+02	1.150545e+02
80            	diffuser_ext	1.915364e+00	1.042383e+03	6.206805e+01
90            	nozzle_int	6.034300e-01	2.422486e+02	4.350888e+01
90            	nozzle_ext	3.227173e+00	4.702431e+02	1.243633e+01
90            	collector_int	1.847331e+01	4.279660e+02	1.218826e+02
90            	collector_ext	7.392494e+00	4.438992e+02	9.385458e+01
90            	diffuser_int	1.146074e+01	3.712588e+02	1.133644e+02
90            	diffuser_ext	2.475781e+00	8.446829e+02	7.563723e+01
100           	nozzle_int	6.034384e-01	2.403558e+02	4.178966e+01
100           	nozzle_ext	3.431014e+00	4.347782e+02	1.248615e+01
100           	collector_int	1.800099e+01	4.388059e+02	1.267611e+02
100           	collector_ext	8.149465e+00	5.186584e+02	1.091662e+02
100           	diffuser_int	1.433123e+01	4.436402e+02	1.142441e+02
100           	diffuser_ext	3.465911e+00	1.002856e+03	8.856460e+01
110           	nozzle_int	6.034401e-01	2.381661e+02	4.050542e+01
110           	nozzle_ext	3.667372e+00	4.054208e+02	1.265532e+01
110           	collector_int	1.153149e+01	4.453428e+02	1.231689e+02
110           	collector_ext	8.770493e+00	5.454322e+02	1.159730e+02
110           	diffuser_int	7.868530e+00	5.157670e+02	1.151362e+02
110           	diffuser_ext	4.466441e+00	7.472181e+02	9.876664e+01
120           	nozzle_int	6.034396e-01	2.360339e+02	3.948509e+01
120           	nozzle_ext	3.833072e+00	3.806620e+02	1.290799e+01
120           	collector_int	9.383496e+00	4.449306e+02	1.229318e+02
120           	collector_ext	9.723450e+00	5.219068e+02	1.171602e+02
120           	diffuser_int	1.143394e+01	5.183386e+02	1.147207e+02
120           	diffuser_ext	5.139899e+00	7.099994e+02	1.069742e+02
130           	nozzle_int	6.034383e-01	2.331505e+02	3.864250e+01
130           	nozzle_ext	4.020852e+00	3.599718e+02	1.319175e+01
130           	collector_int	8.925939e+00	4.399923e+02	1.239007e+02
130           	collector_ext	1.034887e+01	8.411749e+02	1.191851e+02
130           	diffuser_int	1.121251e+01	4.790591e+02	1.127797e+02
130           	diffuser_ext	6.672008e+00	9.553582e+02	1.148314e+02
140           	nozzle_int	6.034367e-01	2.297542e+02	3.792115e+01
140           	nozzle_ext	4.224728e+00	3.426590e+02	1.352746e+01
140           	collector_int	9.506403e+00	5.031664e+02	1.279632e+02
140           	collector_ext	1.151424e+01	9.747152e+02	1.214575e+02
140           	diffuser_int	1.229563e+01	4.255926e+02	1.099665e+02
140           	diffuser_ext	7.997333e+00	1.159479e+03	1.215012e+02
150           	nozzle_int	6.034359e-01	2.264593e+02	3.730703e+01
150           	nozzle_ext	4.428532e+00	3.283850e+02	1.392761e+01
150           	collector_int	9.169715e+00	4.239240e+02	1.329630e+02
150           	collector_ext	9.969726e+00	1.052623e+03	1.217191e+02
150           	diffuser_int	1.124106e+01	3.751329e+02	1.067482e+02
150           	diffuser_ext	8.881356e+00	1.208473e+03	1.265579e+02
160           	nozzle_int	6.034353e-01	2.233480e+02	3.680947e+01
160           	nozzle_ext	4.633468e+00	3.174744e+02	1.436703e+01
160           	collector_int	9.957354e+00	4.144428e+02	1.393272e+02
160           	collector_ext	9.025674e+00	1.058352e+03	1.197865e+02
160           	diffuser_int	1.114433e+01	3.457138e+02	1.036692e+02
160           	diffuser_ext	1.057602e+01	1.247461e+03	1.296496e+02
170           	nozzle_int	6.034350e-01	2.205314e+02	3.643344e+01
170           	nozzle_ext	4.855741e+00	3.093577e+02	1.483052e+01
170           	collector_int	1.010597e+01	4.049868e+02	1.464846e+02
170           	collector_ext	8.806936e+00	1.066318e+03	1.164256e+02
170           	diffuser_int	1.132910e+01	3.455923e+02	1.012659e+02
170           	diffuser_ext	1.081934e+01	1.297605e+03	1.312581e+02
180           	nozzle_int	6.034345e-01	2.179245e+02	3.617316e+01
180           	nozzle_ext	4.972394e+00	3.032727e+02	1.530514e+01
180           	collector_int	1.087193e+01	4.026808e+02	1.532348e+02
180           	collector_ext	7.527494e+00	1.046864e+03	1.126766e+02
180           	diffuser_int	1.080853e+01	3.517761e+02	9.960807e+01
180           	diffuser_ext	1.174710e+01	1.363394e+03	1.319332e+02
190           	nozzle_int	6.034341e-01	2.155165e+02	3.599330e+01
190           	nozzle_ext	5.073511e+00	2.986704e+02	1.577557e+01
190           	collector_int	1.154362e+01	4.299188e+02	1.591766e+02
190           	collector_ext	6.627998e+00	9.494214e+02	1.091482e+02
190           	diffuser_int	1.117708e+01	3.629064e+02	9.858833e+01
190           	diffuser_ext	1.288794e+01	1.411816e+03	1.317882e+02
200           	nozzle_int	6.034340e-01	2.133437e+02	3.586867e+01
200           	nozzle_ext	5.189462e+00	2.951241e+02	1.623057e+01
200           	collector_int	1.224102e+01	4.563886e+02	1.644962e+02
200           	collector_ext	6.244076e+00	7.913679e+02	1.060858e+02
200           	diffuser_int	1.201433e+01	3.679024e+02	9.820494e+01
200           	diffuser_ext	1.568391e+01	1.435460e+03	1.312864e+02
210           	nozzle_int	6.034338e-01	2.113232e+02	3.577995e+01
210           	nozzle_ext	5.279752e+00	2.921945e+02	1.666509e+01
210           	collector_int	1.312460e+01	4.771332e+02	1.692138e+02
210           	collector_ext	5.950341e+00	6.183111e+02	1.035125e+02
210           	diffuser_int	1.174228e+01	3.801684e+02	9.838185e+01
210           	diffuser_ext	1.605443e+01	1.452186e+03	1.307083e+02
220           	nozzle_int	6.034338e-01	2.093292e+02	3.571364e+01
220           	nozzle_ext	5.352724e+00	2.901821e+02	1.707056e+01
220           	collector_int	1.388643e+01	4.920746e+02	1.731263e+02
220           	collector_ext	5.654146e+00	5.544988e+02	1.013984e+02
220           	diffuser_int	1.171014e+01	3.920431e+02	9.916175e+01
220           	diffuser_ext	1.506269e+01	1.464908e+03	1.301826e+02
230           	nozzle_int	6.034338e-01	2.072591e+02	3.566214e+01
230           	nozzle_ext	5.422762e+00	2.889463e+02	1.745005e+01
230           	collector_int	1.436368e+01	5.017121e+02	1.761755e+02
230           	collector_ext	5.499171e+00	5.625083e+02	9.966971e+01
230           	diffuser_int	1.130449e+01	3.989277e+02	1.005722e+02
230           	diffuser_ext	1.394351e+01	1.469361e+03	1.297083e+02
240           	nozzle_int	6.034339e-01	2.050083e+02	3.562140e+01
240           	nozzle_ext	5.490751e+00	2.878270e+02	1.778382e+01
240           	collector_int	1.474623e+01	5.075979e+02	1.785316e+02
240           	collector_ext	4.334327e+00	5.703583e+02	9.823888e+01
240           	diffuser_int	1.127865e+01	4.041632e+02	1.018055e+02
240           	diffuser_ext	1.394416e+01	1.467484e+03	1.292361e+02
250           	nozzle_int	6.034339e-01	2.024724e+02	3.558987e+01
250           	nozzle_ext	5.555868e+00	2.868769e+02	1.806406e+01
250           	collector_int	1.509710e+01	5.095778e+02	1.803284e+02
250           	collector_ext	3.953644e+00	5.769785e+02	9.705674e+01
250           	diffuser_int	1.095834e+01	4.069073e+02	1.030464e+02
250           	diffuser_ext	1.423862e+01	1.459402e+03	1.286878e+02
260           	nozzle_int	6.034339e-01	1.996320e+02	3.556673e+01
260           	nozzle_ext	5.617946e+00	2.864267e+02	1.832073e+01
260           	collector_int	1.493405e+01	5.094924e+02	1.816300e+02
260           	collector_ext	3.859508e+00	5.809364e+02	9.606128e+01
260           	diffuser_int	1.078363e+01	4.082542e+02	1.044230e+02
260           	diffuser_ext	1.337615e+01	1.451321e+03	1.280359e+02
270           	nozzle_int	6.034336e-01	1.966109e+02	3.555058e+01
270           	nozzle_ext	5.677017e+00	2.869379e+02	1.855746e+01
270           	collector_int	1.463345e+01	5.084864e+02	1.825382e+02
270           	collector_ext	3.824890e+00	5.826084e+02	9.518954e+01
270           	diffuser_int	1.080985e+01	4.089512e+02	1.057658e+02
270           	diffuser_ext	1.272723e+01	1.444789e+03	1.273537e+02
280           	nozzle_int	6.034314e-01	1.946450e+02	3.554024e+01
280           	nozzle_ext	5.733111e+00	2.874618e+02	1.877349e+01
280           	collector_int	1.431808e+01	5.072491e+02	1.831370e+02
280           	collector_ext	4.251555e+00	5.833466e+02	9.440765e+01
280           	diffuser_int	1.101160e+01	4.087261e+02	1.069806e+02
280           	diffuser_ext	1.246486e+01	1.439174e+03	1.267096e+02
290           	nozzle_int	6.034370e-01	1.941387e+02	3.553416e+01
290           	nozzle_ext	5.786591e+00	2.880067e+02	1.897033e+01
290           	collector_int	1.398697e+01	5.061514e+02	1.834574e+02
290           	collector_ext	4.487321e+00	5.840683e+02	9.368469e+01
290           	diffuser_int	1.133066e+01	4.080135e+02	1.080558e+02
290           	diffuser_ext	1.251870e+01	1.435955e+03	1.261097e+02
300           	nozzle_int	6.034330e-01	1.936828e+02	3.553091e+01
300           	nozzle_ext	5.837685e+00	2.885739e+02	1.914819e+01
300           	collector_int	1.364251e+01	5.052479e+02	1.835441e+02
300           	collector_ext	5.007685e+00	5.852436e+02	9.298560e+01
300           	diffuser_int	1.153461e+01	4.073812e+02	1.090194e+02
300           	diffuser_ext	1.244310e+01	1.435581e+03	1.254481e+02
310           	nozzle_int	6.034339e-01	1.932996e+02	3.552920e+01
310           	nozzle_ext	5.885427e+00	2.891079e+02	1.930904e+01
310           	collector_int	1.329609e+01	5.043906e+02	1.834569e+02
310           	collector_ext	5.725722e+00	5.868575e+02	9.228567e+01
310           	diffuser_int	1.163400e+01	4.067775e+02	1.098917e+02
310           	diffuser_ext	1.250976e+01	1.435653e+03	1.246768e+02
320           	nozzle_int	6.034336e-01	1.929940e+02	3.552804e+01
320           	nozzle_ext	5.928947e+00	2.895463e+02	1.945520e+01
320           	collector_int	1.294011e+01	5.035200e+02	1.832415e+02
320           	collector_ext	6.322524e+00	5.888769e+02	9.157775e+01
320           	diffuser_int	1.150437e+01	4.061122e+02	1.106712e+02
320           	diffuser_ext	1.279217e+01	1.435665e+03	1.238845e+02
330           	nozzle_int	6.034338e-01	1.927595e+02	3.552680e+01
330           	nozzle_ext	5.969626e+00	2.898455e+02	1.958648e+01
330           	collector_int	1.259031e+01	5.027574e+02	1.829341e+02
330           	collector_ext	6.650023e+00	5.902071e+02	9.086833e+01
330           	diffuser_int	1.159833e+01	4.056887e+02	1.113525e+02
330           	diffuser_ext	1.327593e+01	1.435702e+03	1.231284e+02
340           	nozzle_int	6.034339e-01	1.925837e+02	3.552514e+01
340           	nozzle_ext	6.009053e+00	2.900078e+02	1.970620e+01
340           	collector_int	1.226232e+01	5.021334e+02	1.825724e+02
340           	collector_ext	6.629497e+00	5.907247e+02	9.016774e+01
340           	diffuser_int	1.154158e+01	4.055858e+02	1.119468e+02
340           	diffuser_ext	1.385242e+01	1.435635e+03	1.224700e+02
350           	nozzle_int	6.034339e-01	1.924540e+02	3.552308e+01
350           	nozzle_ext	6.047458e+00	2.900732e+02	1.981303e+01
350           	collector_int	1.197255e+01	5.015880e+02	1.821890e+02
350           	collector_ext	6.825157e+00	5.906198e+02	8.947782e+01
350           	diffuser_int	1.123753e+01	4.053771e+02	1.124783e+02
350           	diffuser_ext	1.386253e+01	1.435224e+03	1.219249e+02
360           	nozzle_int	6.034339e-01	1.923604e+02	3.552062e+01
360           	nozzle_ext	6.084560e+00	2.900890e+02	1.990775e+01
360           	collector_int	1.173934e+01	5.010904e+02	1.818072e+02
360           	collector_ext	7.392738e+00	5.900003e+02	8.880151e+01
360           	diffuser_int	1.121081e+01	4.050322e+02	1.129620e+02
360           	diffuser_ext	1.378394e+01	1.434554e+03	1.215013e+02
370           	nozzle_int	6.034339e-01	1.922946e+02	3.551773e+01
370           	nozzle_ext	6.120164e+00	2.900972e+02	1.999239e+01
370           	collector_int	1.151317e+01	5.006493e+02	1.814429e+02
370           	collector_ext	7.432761e+00	5.889645e+02	8.815802e+01
370           	diffuser_int	1.118664e+01	4.046250e+02	1.133971e+02
370           	diffuser_ext	1.376434e+01	1.433796e+03	1.211873e+02
380           	nozzle_int	6.034339e-01	1.922494e+02	3.551454e+01
380           	nozzle_ext	6.154328e+00	2.901209e+02	2.006676e+01
380           	collector_int	1.230444e+01	5.002771e+02	1.811094e+02
380           	collector_ext	7.469902e+00	5.876242e+02	8.756036e+01
380           	diffuser_int	1.108502e+01	4.042183e+02	1.137769e+02
380           	diffuser_ext	1.379459e+01	1.433015e+03	1.209485e+02
390           	nozzle_int	6.034339e-01	1.922192e+02	3.551114e+01
390           	nozzle_ext	6.186586e+00	2.901770e+02	2.013439e+01
390           	collector_int	1.147656e+01	4.999878e+02	1.808132e+02
390           	collector_ext	7.367182e+00	5.861351e+02	8.701565e+01
390           	diffuser_int	1.171181e+01	4.038181e+02	1.140951e+02
390           	diffuser_ext	1.384801e+01	1.432176e+03	1.207448e+02
400           	nozzle_int	6.034339e-01	1.922000e+02	3.550746e+01
400           	nozzle_ext	6.212745e+00	2.902744e+02	2.019440e+01
400           	collector_int	1.199880e+01	4.997854e+02	1.805578e+02
400           	collector_ext	7.197882e+00	5.846380e+02	8.652592e+01
400           	diffuser_int	1.171854e+01	4.034242e+02	1.143490e+02
400           	diffuser_ext	1.390676e+01	1.431270e+03	1.205582e+02
410           	nozzle_int	6.034339e-01	1.921886e+02	3.550367e+01
410           	nozzle_ext	6.239883e+00	2.904106e+02	2.024752e+01
410           	collector_int	1.152901e+01	4.996782e+02	1.803446e+02
410           	collector_ext	7.010617e+00	5.832454e+02	8.609005e+01
410           	diffuser_int	1.172326e+01	4.030455e+02	1.145404e+02
410           	diffuser_ext	1.394519e+01	1.430328e+03	1.203835e+02
420           	nozzle_int	6.034339e-01	1.921823e+02	3.549971e+01
420           	nozzle_ext	6.266294e+00	2.905762e+02	2.029299e+01
420           	collector_int	1.143262e+01	4.996775e+02	1.801727e+02
420           	collector_ext	7.292667e+00	5.820129e+02	8.569563e+01
420           	diffuser_int	1.171958e+01	4.026947e+02	1.146737e+02
420           	diffuser_ext	1.396283e+01	1.429394e+03	1.202182e+02
430           	nozzle_int	6.034339e-01	1.921794e+02	3.549571e+01
430           	nozzle_ext	6.290699e+00	2.907645e+02	2.033308e+01
430           	collector_int	1.143714e+01	4.997789e+02	1.800392e+02
430           	collector_ext	7.409476e+00	5.809562e+02	8.532993e+01
430           	diffuser_int	1.153231e+01	4.023824e+02	1.147559e+02
430           	diffuser_ext	1.397855e+01	1.428483e+03	1.200611e+02
440           	nozzle_int	6.034339e-01	1.921783e+02	3.549167e+01
440           	nozzle_ext	6.313497e+00	2.909693e+02	2.036737e+01
440           	collector_int	1.135482e+01	4.999668e+02	1.799408e+02
440           	collector_ext	6.972755e+00	5.800649e+02	8.499877e+01
440           	diffuser_int	1.116524e+01	4.021081e+02	1.147945e+02
440           	diffuser_ext	1.400339e+01	1.427609e+03	1.199064e+02
450           	nozzle_int	6.034339e-01	1.921782e+02	3.548759e+01
450           	nozzle_ext	6.334722e+00	2.911855e+02	2.039678e+01
450           	collector_int	1.128341e+01	5.002200e+02	1.798745e+02
450           	collector_ext	6.418015e+00	5.793373e+02	8.466988e+01
450           	diffuser_int	1.148275e+01	4.018708e+02	1.147970e+02
450           	diffuser_ext	1.404130e+01	1.426780e+03	1.197465e+02
460           	nozzle_int	6.034339e-01	1.921784e+02	3.548352e+01
460           	nozzle_ext	6.354439e+00	2.914073e+02	2.042146e+01
460           	collector_int	1.122560e+01	5.005118e+02	1.798360e+02
460           	collector_ext	5.988346e+00	5.787600e+02	8.437805e+01
460           	diffuser_int	1.165640e+01	4.016692e+02	1.147712e+02
460           	diffuser_ext	1.408914e+01	1.426000e+03	1.195774e+02
470           	nozzle_int	6.034339e-01	1.921786e+02	3.547951e+01
470           	nozzle_ext	6.372828e+00	2.916325e+02	2.044218e+01
470           	collector_int	1.159721e+01	5.008227e+02	1.798206e+02
470           	collector_ext	5.387738e+00	5.783136e+02	8.412251e+01
470           	diffuser_int	1.107442e+01	4.015020e+02	1.147239e+02
470           	diffuser_ext	1.413668e+01	1.425289e+03	1.193990e+02
480           	nozzle_int	6.034339e-01	1.921789e+02	3.547557e+01
480           	nozzle_ext	6.389908e+00	2.918559e+02	2.045989e+01
480           	collector_int	1.154782e+01	5.011496e+02	1.798241e+02
480           	collector_ext	5.003113e+00	5.779588e+02	8.389524e+01
480           	diffuser_int	1.138716e+01	4.013743e+02	1.146627e+02
480           	diffuser_ext	1.418202e+01	1.424664e+03	1.192139e+02
490           	nozzle_int	6.034339e-01	1.921790e+02	3.547176e+01
490           	nozzle_ext	6.405746e+00	2.920751e+02	2.047354e+01
490           	collector_int	1.128329e+01	5.014893e+02	1.798427e+02
490           	collector_ext	4.918960e+00	5.776712e+02	8.369294e+01
490           	diffuser_int	1.156347e+01	4.012888e+02	1.145929e+02
490           	diffuser_ext	1.422655e+01	1.424118e+03	1.190269e+02
500           	nozzle_int	6.034339e-01	1.921791e+02	3.546800e+01
500           	nozzle_ext	6.420416e+00	2.922879e+02	2.048476e+01
500           	collector_int	1.147640e+01	5.018351e+02	1.798726e+02
500           	collector_ext	4.818725e+00	5.774311e+02	8.350157e+01
500           	diffuser_int	1.099167e+01	4.012437e+02	1.145187e+02
500           	diffuser_ext	1.421327e+01	1.423634e+03	1.188412e+02
510           	nozzle_int	6.034339e-01	1.921792e+02	3.546428e+01
510           	nozzle_ext	6.434010e+00	2.924930e+02	2.049348e+01
510           	collector_int	1.165296e+01	5.021789e+02	1.799113e+02
510           	collector_ext	4.847834e+00	5.772277e+02	8.332029e+01
510           	diffuser_int	1.098039e+01	4.012290e+02	1.144445e+02
510           	diffuser_ext	1.419542e+01	1.423181e+03	1.186609e+02
520           	nozzle_int	6.034339e-01	1.921792e+02	3.546069e+01
520           	nozzle_ext	6.446587e+00	2.926889e+02	2.049965e+01
520           	collector_int	1.119543e+01	5.025156e+02	1.799567e+02
520           	collector_ext	4.905597e+00	5.770544e+02	8.315311e+01
520           	diffuser_int	1.151632e+01	4.012314e+02	1.143733e+02
520           	diffuser_ext	1.421653e+01	1.422737e+03	1.184906e+02
530           	nozzle_int	6.034339e-01	1.921792e+02	3.545724e+01
530           	nozzle_ext	6.458201e+00	2.928745e+02	2.050397e+01
530           	collector_int	1.139756e+01	5.028442e+02	1.800059e+02
530           	collector_ext	5.006934e+00	5.769031e+02	8.300546e+01
530           	diffuser_int	1.100446e+01	4.012451e+02	1.143074e+02
530           	diffuser_ext	1.426428e+01	1.422305e+03	1.183329e+02
540           	nozzle_int	6.034339e-01	1.921792e+02	3.545389e+01
540           	nozzle_ext	6.468907e+00	2.930495e+02	2.050670e+01
540           	collector_int	1.157708e+01	5.031644e+02	1.800576e+02
540           	collector_ext	5.082221e+00	5.767689e+02	8.287890e+01
540           	diffuser_int	1.148890e+01	4.012716e+02	1.142483e+02
540           	diffuser_ext	1.424401e+01	1.421883e+03	1.181897e+02
550           	nozzle_int	6.034339e-01	1.921792e+02	3.545038e+01
550           	nozzle_ext	6.479179e+00	2.932193e+02	2.050764e+01
550           	collector_int	1.115485e+01	5.034858e+02	1.801133e+02
550           	collector_ext	5.135323e+00	5.766477e+02	8.276241e+01
550           	diffuser_int	1.098385e+01	4.012984e+02	1.141950e+02
550           	diffuser_ext	1.402059e+01	1.421441e+03	1.180553e+02
560           	nozzle_int	6.034339e-01	1.921791e+02	3.544719e+01
560           	nozzle_ext	6.488845e+00	2.933841e+02	2.050768e+01
560           	collector_int	1.136464e+01	5.037906e+02	1.801695e+02
560           	collector_ext	5.171586e+00	5.765336e+02	8.265991e+01
560           	diffuser_int	1.147226e+01	4.013202e+02	1.141488e+02
560           	diffuser_ext	1.387651e+01	1.420999e+03	1.179383e+02
570           	nozzle_int	6.034339e-01	1.921791e+02	3.544452e+01
570           	nozzle_ext	6.497819e+00	2.935404e+02	2.050649e+01
570           	collector_int	1.154795e+01	5.040805e+02	1.802248e+02
570           	collector_ext	5.197890e+00	5.764229e+02	8.256917e+01
570           	diffuser_int	1.097228e+01	4.013387e+02	1.141109e+02
570           	diffuser_ext	1.371669e+01	1.420568e+03	1.178398e+02
580           	nozzle_int	6.034339e-01	1.921791e+02	3.544250e+01
580           	nozzle_ext	6.506055e+00	2.936876e+02	2.050426e+01
580           	collector_int	1.115783e+01	5.043584e+02	1.802786e+02
580           	collector_ext	5.221010e+00	5.763101e+02	8.248727e+01
580           	diffuser_int	1.146433e+01	4.013568e+02	1.140808e+02
580           	diffuser_ext	1.361879e+01	1.420154e+03	1.177589e+02
590           	nozzle_int	6.034339e-01	1.921790e+02	3.544065e+01
590           	nozzle_ext	6.513584e+00	2.938255e+02	2.050120e+01
590           	collector_int	1.142592e+01	5.046270e+02	1.803316e+02
590           	collector_ext	5.253288e+00	5.762041e+02	8.241256e+01
590           	diffuser_int	1.098292e+01	4.013761e+02	1.140585e+02
590           	diffuser_ext	1.355671e+01	1.419758e+03	1.176929e+02
600           	nozzle_int	6.034339e-01	1.921790e+02	3.543919e+01
600           	nozzle_ext	6.520459e+00	2.939544e+02	2.049716e+01
600           	collector_int	1.160924e+01	5.048871e+02	1.803844e+02
600           	collector_ext	5.297714e+00	5.761138e+02	8.234397e+01
600           	diffuser_int	1.146788e+01	4.013980e+02	1.140429e+02
600           	diffuser_ext	1.345246e+01	1.419373e+03	1.176387e+02
610           	nozzle_int	6.034339e-01	1.921789e+02	3.543812e+01
610           	nozzle_ext	6.526743e+00	2.940745e+02	2.049226e+01
610           	collector_int	1.126177e+01	5.051407e+02	1.804371e+02
610           	collector_ext	5.329988e+00	5.760219e+02	8.227970e+01
610           	diffuser_int	1.096847e+01	4.014251e+02	1.140330e+02
610           	diffuser_ext	1.340371e+01	1.419015e+03	1.175923e+02
620           	nozzle_int	6.034339e-01	1.921789e+02	3.543742e+01
620           	nozzle_ext	6.532502e+00	2.941860e+02	2.048785e+01
620           	collector_int	1.144712e+01	5.053876e+02	1.804889e+02
620           	collector_ext	5.351827e+00	5.759266e+02	8.221848e+01
620           	diffuser_int	1.146474e+01	4.014609e+02	1.140279e+02
620           	diffuser_ext	1.334732e+01	1.418687e+03	1.175498e+02
630           	nozzle_int	6.034339e-01	1.921789e+02	3.543699e+01
630           	nozzle_ext	6.537805e+00	2.942896e+02	2.048273e+01
630           	collector_int	1.162432e+01	5.056263e+02	1.805397e+02
630           	collector_ext	5.385086e+00	5.758203e+02	8.215901e+01
630           	diffuser_int	1.097149e+01	4.015023e+02	1.140267e+02
630           	diffuser_ext	1.324298e+01	1.418378e+03	1.175094e+02
640           	nozzle_int	6.034339e-01	1.921788e+02	3.543674e+01
640           	nozzle_ext	6.542715e+00	2.943853e+02	2.047639e+01
640           	collector_int	1.128554e+01	5.058553e+02	1.805893e+02
640           	collector_ext	5.416490e+00	5.757192e+02	8.210194e+01
640           	diffuser_int	1.146775e+01	4.015443e+02	1.140287e+02
640           	diffuser_ext	1.319010e+01	1.418099e+03	1.174710e+02
650           	nozzle_int	6.034339e-01	1.921788e+02	3.543660e+01
650           	nozzle_ext	6.547283e+00	2.944738e+02	2.047069e+01
650           	collector_int	1.146969e+01	5.060741e+02	1.806376e+02
650           	collector_ext	5.441658e+00	5.756440e+02	8.204468e+01
650           	diffuser_int	1.097472e+01	4.015885e+02	1.140330e+02
650           	diffuser_ext	1.316568e+01	1.417849e+03	1.174351e+02
660           	nozzle_int	6.034339e-01	1.921788e+02	3.543653e+01
660           	nozzle_ext	6.551550e+00	2.945554e+02	2.046449e+01
660           	collector_int	1.164526e+01	5.062834e+02	1.806841e+02
660           	collector_ext	5.457622e+00	5.755772e+02	8.198776e+01
660           	diffuser_int	1.147081e+01	4.016358e+02	1.140392e+02
660           	diffuser_ext	1.315617e+01	1.417622e+03	1.174015e+02
670           	nozzle_int	6.034339e-01	1.921788e+02	3.543647e+01
670           	nozzle_ext	6.555551e+00	2.946304e+02	2.045749e+01
670           	collector_int	1.131151e+01	5.064829e+02	1.807286e+02
670           	collector_ext	5.468683e+00	5.755129e+02	8.193604e+01
670           	diffuser_int	1.097761e+01	4.016855e+02	1.140465e+02
670           	diffuser_ext	1.315999e+01	1.417409e+03	1.173706e+02
680           	nozzle_int	6.034339e-01	1.921788e+02	3.543643e+01
680           	nozzle_ext	6.559310e+00	2.946994e+02	2.045075e+01
680           	collector_int	1.149252e+01	5.066725e+02	1.807711e+02
680           	collector_ext	5.477339e+00	5.754497e+02	8.189210e+01
680           	diffuser_int	1.147328e+01	4.017351e+02	1.140547e+02
680           	diffuser_ext	1.317398e+01	1.417206e+03	1.173432e+02
690           	nozzle_int	6.034339e-01	1.921788e+02	3.543640e+01
690           	nozzle_ext	6.562843e+00	2.947626e+02	2.044341e+01
690           	collector_int	1.166383e+01	5.068525e+02	1.808112e+02
690           	collector_ext	5.485490e+00	5.753880e+02	8.185338e+01
690           	diffuser_int	1.097997e+01	4.017830e+02	1.140633e+02
690           	diffuser_ext	1.317238e+01	1.417015e+03	1.173195e+02
700           	nozzle_int	6.034339e-01	1.921788e+02	3.543638e+01
700           	nozzle_ext	6.566162e+00	2.948204e+02	2.043629e+01
700           	collector_int	1.133347e+01	5.070234e+02	1.808494e+02
700           	collector_ext	5.492105e+00	5.753276e+02	8.181624e+01
700           	diffuser_int	1.147525e+01	4.018290e+02	1.140720e+02
700           	diffuser_ext	1.315093e+01	1.416837e+03	1.172994e+02
710           	nozzle_int	6.034339e-01	1.921788e+02	3.543636e+01
710           	nozzle_ext	6.569270e+00	2.948731e+02	2.042881e+01
710           	collector_int	1.151357e+01	5.071860e+02	1.808856e+02
710           	collector_ext	5.500727e+00	5.752700e+02	8.177803e+01
710           	diffuser_int	1.098190e+01	4.018736e+02	1.140807e+02
710           	diffuser_ext	1.308687e+01	1.416675e+03	1.172814e+02
720           	nozzle_int	6.034339e-01	1.921788e+02	3.543634e+01
720           	nozzle_ext	6.572171e+00	2.949210e+02	2.042094e+01
720           	collector_int	1.168240e+01	5.073400e+02	1.809199e+02
720           	collector_ext	5.511414e+00	5.752155e+02	8.173849e+01
720           	diffuser_int	1.147681e+01	4.019193e+02	1.140893e+02
720           	diffuser_ext	1.306024e+01	1.416539e+03	1.172649e+02
730           	nozzle_int	6.034339e-01	1.921788e+02	3.543633e+01
730           	nozzle_ext	6.574857e+00	2.949644e+02	2.041221e+01
730           	collector_int	1.135460e+01	5.074851e+02	1.809523e+02
730           	collector_ext	5.519250e+00	5.751622e+02	8.169936e+01
730           	diffuser_int	1.098345e+01	4.019687e+02	1.140976e+02
730           	diffuser_ext	1.299182e+01	1.416425e+03	1.172500e+02
740           	nozzle_int	6.034339e-01	1.921788e+02	3.543633e+01
740           	nozzle_ext	6.577320e+00	2.950036e+02	2.040367e+01
740           	collector_int	1.166554e+01	5.076217e+02	1.809833e+02
740           	collector_ext	5.521491e+00	5.751084e+02	8.166334e+01