# Residuals   
# Time        	Ux            	Uy            	Uz            	p             
0             	N/A	N/A
1             	1.000000e+00	1.000000e+00	1.000000e+00	1.000000e+00
2             	5.711016e-02	1.545927e-01	1.541548e-01	5.142104e-03
3             	4.369263e-01	3.648442e-01	3.442250e-01	1.652377e-05
4             	2.487048e-01	2.038368e-01	2.018947e-01	1.759332e-05
5             	5.102273e-02	9.304071e-02	9.072623e-02	7.793361e-04
6             	2.272555e-01	1.480933e-01	1.348515e-01	2.859832e-05
7             	2.004407e-01	1.532097e-01	1.523431e-01	2.920280e-05
8             	6.429841e-02	8.711822e-02	8.617072e-02	2.366140e-02
9             	1.443698e-01	1.051698e-01	9.516395e-02	3.174899e-05
10            	8.823741e-02	8.653476e-02	8.433503e-02	3.538751e-05
11            	3.994651e-02	6.234794e-02	6.089546e-02	2.000161e-03
12            	7.868729e-02	7.444953e-02	6.605274e-02	5.588328e-05
13            	5.488295e-02	6.830022e-02	6.410142e-02	6.264501e-05
14            	3.518373e-02	5.627013e-02	5.410510e-02	4.052661e-04
15            	5.123239e-02	6.007411e-02	5.700123e-02	6.075404e-05
16            	3.426771e-02	5.885366e-02	5.535729e-02	6.570078e-05
17            	2.602849e-02	5.138894e-02	4.937982e-02	7.292764e-04
18            	3.412570e-02	4.910201e-02	4.672468e-02	1.231785e-04
19            	2.689409e-02	5.008681e-02	4.778843e-02	1.526389e-04
20            	2.203667e-02	4.947121e-02	4.827439e-02	2.753272e-04
21            	2.451407e-02	5.087097e-02	4.850036e-02	7.467042e-05
22            	2.234352e-02	5.057624e-02	4.748656e-02	8.809569e-05
23            	1.946115e-02	4.754459e-02	4.476325e-02	3.627169e-04
24            	2.026185e-02	4.720030e-02	4.363626e-02	2.584178e-03
25            	1.932854e-02	4.897501e-02	4.515677e-02	1.308428e-02
26            	1.769841e-02	4.971374e-02	4.551189e-02	6.782608e-04
27            	1.783478e-02	4.958479e-02	4.495390e-02	4.002829e-04
28            	1.845201e-02	4.900758e-02	4.411435e-02	4.254509e-04
29            	1.753296e-02	4.896460e-02	4.359114e-02	6.360681e-04
30            	1.718195e-02	4.979924e-02	4.420548e-02	1.180887e-03
31            	1.717115e-02	5.085774e-02	4.538288e-02	1.310956e-03
32            	1.676004e-02	5.127744e-02	4.562468e-02	8.847218e-04
33            	1.647360e-02	5.125534e-02	4.508076e-02	6.089307e-04
34            	1.669474e-02	5.158464e-02	4.519346e-02	5.336268e-04
35            	1.649318e-02	5.230209e-02	4.625741e-02	5.827423e-04
36            	1.620834e-02	5.287740e-02	4.678698e-02	6.702120e-04
37            	1.609154e-02	5.335135e-02	4.676663e-02	7.375448e-04
38            	1.608546e-02	5.356297e-02	4.685906e-02	7.068453e-04
39            	1.602612e-02	5.405814e-02	4.739429e-02	6.119947e-04
40            	1.581148e-02	5.469094e-02	4.817515e-02	5.201425e-04
41            	1.564415e-02	5.482578e-02	4.860906e-02	5.012685e-04
42            	1.553554e-02	5.546971e-02	4.876267e-02	4.868712e-04
43            	1.556004e-02	5.594138e-02	4.898316e-02	4.721696e-04
44            	1.559870e-02	5.675266e-02	4.970054e-02	4.681352e-04
45            	1.555783e-02	5.751183e-02	5.035601e-02	4.758269e-04
46            	1.551323e-02	5.820939e-02	5.079556e-02	4.638623e-04
47            	1.548743e-02	5.885739e-02	5.127346e-02	4.477039e-04
48            	1.549753e-02	5.963743e-02	5.208291e-02	4.250155e-04
49            	1.556944e-02	5.993161e-02	5.289095e-02	3.999766e-04
50            	1.567181e-02	6.096783e-02	5.368405e-02	3.858647e-04
51            	1.579107e-02	6.272173e-02	5.449239e-02	3.791645e-04
52            	1.583354e-02	6.335927e-02	5.545268e-02	3.819098e-04
53            	1.590729e-02	6.438610e-02	5.665744e-02	3.846551e-04
54            	1.600860e-02	6.549940e-02	5.781384e-02	3.840348e-04
55            	1.607598e-02	6.673047e-02	5.890209e-02	3.779209e-04
56            	1.612774e-02	6.821824e-02	5.994437e-02	3.844310e-04
57            	1.609803e-02	6.899054e-02	6.110303e-02	3.888076e-04
58            	1.612851e-02	7.005549e-02	6.233890e-02	3.934170e-04
59            	1.621017e-02	7.139093e-02	6.351379e-02	3.805131e-04
60            	1.631618e-02	7.222767e-02	6.450304e-02	3.722284e-04
61            	1.636640e-02	7.264752e-02	6.519908e-02	3.658327e-04
62            	1.637031e-02	7.324718e-02	6.568515e-02	3.579549e-04
63            	1.637437e-02	7.342762e-02	6.560298e-02	3.493652e-04
64            	1.634783e-02	7.297806e-02	6.514158e-02	3.396407e-04
65            	1.628083e-02	7.235529e-02	6.442728e-02	3.301832e-04
66            	1.615604e-02	7.139008e-02	6.359759e-02	3.229375e-04
67            	1.594307e-02	7.050545e-02	6.281629e-02	3.189002e-04
68            	1.572717e-02	6.989905e-02	6.203338e-02	3.190507e-04
69            	1.542527e-02	6.920540e-02	6.112238e-02	3.049024e-04
70            	1.510008e-02	6.860074e-02	6.011137e-02	2.911063e-04
71            	1.472199e-02	6.804979e-02	5.912072e-02	2.747788e-04
72            	1.432368e-02	6.740989e-02	5.797907e-02	2.583850e-04
73            	1.393600e-02	6.681013e-02	5.680371e-02	2.430820e-04
74            	1.357782e-02	6.635336e-02	5.580126e-02	2.292267e-04
75            	1.324602e-02	6.590122e-02	5.487026e-02	2.168908e-04
76            	1.294490e-02	6.532008e-02	5.389365e-02	2.061907e-04
77            	1.264690e-02	6.471395e-02	5.301129e-02	1.947968e-04
78            	1.235589e-02	6.416939e-02	5.222190e-02	1.846100e-04
79            	1.208903e-02	6.368795e-02	5.160384e-02	1.756879e-04
80            	1.185590e-02	6.323247e-02	5.107470e-02	1.670309e-04
81            	1.163782e-02	6.268667e-02	5.051097e-02	1.584752e-04
82            	1.142432e-02	6.204443e-02	4.987633e-02	1.504785e-04
83            	1.140216e-02	6.089361e-02	4.872711e-02	1.450798e-04
84            	1.136347e-02	5.985263e-02	4.768310e-02	1.415236e-04
85            	1.120249e-02	6.008170e-02	4.771478e-02	1.371181e-04
86            	1.106144e-02	6.075649e-02	4.707442e-02	1.301005e-04
87            	1.092960e-02	6.090349e-02	4.716715e-02	1.247468e-04
88            	1.086056e-02	5.925164e-02	4.725923e-02	1.207392e-04
89            	1.077510e-02	5.877022e-02	4.589212e-02	1.168242e-04
90            	1.061168e-02	5.868429e-02	4.547817e-02	1.098898e-04
91            	1.040486e-02	5.872894e-02	4.538892e-02	1.035975e-04
92            	1.018677e-02	5.844347e-02	4.530543e-02	9.843292e-05
93            	9.973725e-03	5.777872e-02	4.485579e-02	9.341044e-05
94            	9.755736e-03	5.692144e-02	4.409343e-02	8.875844e-05
95            	9.531669e-03	5.617020e-02	4.332581e-02	8.487513e-05
96            	9.303634e-03	5.557196e-02	4.263772e-02	8.113549e-05
97            	9.079966e-03	5.489014e-02	4.197157e-02	7.777442e-05
98            	8.898889e-03	5.300487e-02	4.138086e-02	7.402512e-05
99            	8.725647e-03	5.239931e-02	3.966054e-02	7.126108e-05
100           	8.532393e-03	5.096780e-02	3.903462e-02	6.937058e-05
101           	8.205718e-03	5.024712e-02	3.818211e-02	6.713269e-05
102           	7.907246e-03	4.967759e-02	3.734796e-02	6.352174e-05
103           	7.772358e-03	4.831037e-02	3.591150e-02	6.109482e-05
104           	7.526210e-03	4.709705e-02	3.474018e-02	5.971600e-05
105           	7.265173e-03	4.627752e-02	3.394328e-02	5.827890e-05
106           	7.010885e-03	4.572118e-02	3.334983e-02	5.677254e-05
107           	6.895044e-03	4.459003e-02	3.233039e-02	5.686619e-05
108           	6.721000e-03	4.374332e-02	3.166250e-02	5.820461e-05
109           	6.528186e-03	4.326090e-02	3.128841e-02	5.806882e-05
110           	6.443545e-03	4.253061e-02	3.075952e-02	5.865195e-05
111           	6.276041e-03	4.219867e-02	3.058576e-02	5.867429e-05
112           	6.125750e-03	4.190452e-02	3.048203e-02	5.719837e-05
113           	6.093504e-03	4.114896e-02	2.993007e-02	5.655365e-05
114           	5.961758e-03	4.084843e-02	2.963113e-02	5.539898e-05
115           	5.896383e-03	4.050445e-02	2.919059e-02	5.457175e-05
116           	5.822165e-03	4.028032e-02	2.877081e-02	5.387138e-05
117           	5.733921e-03	4.020712e-02	2.842805e-02	5.344023e-05
118           	5.634440e-03	4.026175e-02	2.809050e-02	5.292950e-05
119           	5.541195e-03	4.034490e-02	2.776865e-02	5.227566e-05
120           	5.463821e-03	4.021216e-02	2.742826e-02	5.222951e-05
121           	5.385127e-03	3.984308e-02	2.705262e-02	5.241676e-05
122           	5.297508e-03	3.923802e-02	2.662175e-02	5.257042e-05
123           	5.207882e-03	3.858833e-02	2.613528e-02	5.367559e-05
124           	5.038445e-03	3.847006e-02	2.590139e-02	5.304346e-05
125           	4.975348e-03	3.790032e-02	2.531462e-02	5.307813e-05
126           	4.868421e-03	3.746812e-02	2.488480e-02	5.345383e-05
127           	4.771542e-03	3.711171e-02	2.458480e-02	5.326589e-05
128           	4.688274e-03	3.684087e-02	2.436623e-02	5.261643e-05
129           	4.618106e-03	3.662710e-02	2.415672e-02	5.206766e-05
130           	4.558600e-03	3.639005e-02	2.396793e-02	5.158440e-05
131           	4.505295e-03	3.614919e-02	2.386387e-02	5.101751e-05
132           	4.461789e-03	3.591164e-02	2.382844e-02	5.133840e-05
133           	4.408604e-03	3.565480e-02	2.374130e-02	5.089490e-05
134           	4.417737e-03	3.490996e-02	2.326281e-02	5.062778e-05
135           	4.354545e-03	3.470042e-02	2.306141e-02	5.015480e-05
136           	4.339373e-03	3.436305e-02	2.266585e-02	4.973600e-05
137           	4.318696e-03	3.403047e-02	2.223863e-02	4.957918e-05
138           	4.282020e-03	3.372283e-02	2.183203e-02	4.956864e-05
139           	4.239570e-03	3.352435e-02	2.150759e-02	4.943487e-05
140           	4.198222e-03	3.337064e-02	2.122268e-02	4.937693e-05
141           	4.161832e-03	3.316419e-02	2.095675e-02	4.961115e-05
142           	4.127786e-03	3.286553e-02	2.068185e-02	4.979141e-05
143           	4.087176e-03	3.250480e-02	2.040570e-02	4.982382e-05
144           	4.036909e-03	3.214334e-02	2.015306e-02	4.977126e-05
145           	3.976824e-03	3.173162e-02	1.991032e-02	4.947811e-05
146           	3.916367e-03	3.123646e-02	1.966343e-02	4.874258e-05
147           	3.843618e-03	3.121861e-02	1.933878e-02	4.818307e-05
148           	3.798420e-03	3.070071e-02	1.906748e-02	4.750833e-05
149           	3.748384e-03	3.060046e-02	1.876710e-02	4.701276e-05
150           	3.712982e-03	3.008880e-02	1.854779e-02	4.645541e-05
151           	3.670303e-03	2.960842e-02	1.836310e-02	4.563802e-05
152           	3.606545e-03	2.964582e-02	1.812205e-02	4.511935e-05
153           	3.559310e-03	2.919392e-02	1.794566e-02	4.498955e-05
154           	3.503374e-03	2.900686e-02	1.772270e-02	4.483772e-05
155           	3.467652e-03	2.833321e-02	1.760702e-02	4.482939e-05
156           	3.419177e-03	2.808101e-02	1.741123e-02	4.424574e-05
157           	3.371833e-03	2.797491e-02	1.724448e-02	4.350022e-05
158           	3.333872e-03	2.781304e-02	1.705015e-02	4.303975e-05
159           	3.301514e-03	2.753520e-02	1.681840e-02	4.205407e-05
160           	3.274717e-03	2.722685e-02	1.661843e-02	4.096857e-05
161           	3.247804e-03	2.702018e-02	1.644347e-02	3.991352e-05
162           	3.200340e-03	2.678631e-02	1.658107e-02	3.921230e-05
163           	3.158845e-03	2.658596e-02	1.628271e-02	3.854153e-05
164           	3.109417e-03	2.631254e-02	1.619795e-02	3.768538e-05
165           	3.060693e-03	2.602165e-02	1.617454e-02	3.639251e-05
166           	3.009899e-03	2.564013e-02	1.605614e-02	3.550491e-05
167           	2.956592e-03	2.525223e-02	1.591928e-02	3.447665e-05
168           	2.899561e-03	2.475365e-02	1.570495e-02	3.368127e-05
169           	2.842619e-03	2.417858e-02	1.545117e-02	3.283256e-05
170           	2.790625e-03	2.360927e-02	1.521349e-02	3.203197e-05
171           	2.743381e-03	2.305637e-02	1.498471e-02	3.124596e-05
172           	2.699404e-03	2.256299e-02	1.475598e-02	3.054092e-05
173           	2.657983e-03	2.213682e-02	1.452968e-02	2.970919e-05
174           	2.620087e-03	2.175137e-02	1.432566e-02	2.879687e-05
175           	2.583596e-03	2.136539e-02	1.413939e-02	2.783140e-05
176           	2.548505e-03	2.099661e-02	1.395523e-02	2.718228e-05
177           	2.518203e-03	2.065832e-02	1.381488e-02	2.637578e-05
178           	2.488966e-03	2.033429e-02	1.366162e-02	2.553033e-05
179           	2.457572e-03	2.003043e-02	1.349324e-02	2.465953e-05
180           	2.424576e-03	1.974121e-02	1.332644e-02	2.393221e-05
181           	2.395671e-03	1.945589e-02	1.317379e-02	2.325157e-05
182           	2.370483e-03	1.919075e-02	1.304147e-02	2.260697e-05
183           	2.347001e-03	1.893972e-02	1.291346e-02	2.196010e-05
184           	2.320671e-03	1.867437e-02	1.277151e-02	2.142283e-05
185           	2.296176e-03	1.841915e-02	1.265557e-02	2.102533e-05
186           	2.277066e-03	1.813981e-02	1.257931e-02	2.066553e-05
187           	2.252017e-03	1.785672e-02	1.248115e-02	2.030264e-05
188           	2.222642e-03	1.755318e-02	1.237094e-02	2.005461e-05
189           	2.194513e-03	1.722176e-02	1.226406e-02	1.978723e-05
190           	2.170560e-03	1.686466e-02	1.217968e-02	1.959927e-05
191           	2.144795e-03	1.649737e-02	1.211259e-02	1.937180e-05
192           	2.113025e-03	1.609772e-02	1.203732e-02	1.911897e-05
193           	2.076958e-03	1.568099e-02	1.194139e-02	1.874852e-05
194           	2.038666e-03	1.524178e-02	1.182630e-02	1.824361e-05
195           	2.001107e-03	1.480958e-02	1.171621e-02	1.776563e-05
196           	1.963575e-03	1.440490e-02	1.160642e-02	1.747385e-05
197           	1.928785e-03	1.378755e-02	1.152435e-02	1.701052e-05
198           	1.883649e-03	1.352433e-02	1.132200e-02	1.663395e-05
199           	1.840237e-03	1.314304e-02	1.113813e-02	1.627422e-05
200           	1.801063e-03	1.277546e-02	1.096230e-02	1.587298e-05
201           	1.755337e-03	1.243829e-02	1.065747e-02	1.547818e-05
202           	1.710434e-03	1.213575e-02	1.032202e-02	1.511029e-05
203           	1.667184e-03	1.183341e-02	9.985166e-03	1.476668e-05
204           	1.627121e-03	1.151200e-02	9.658388e-03	1.447980e-05
205           	1.587574e-03	1.117882e-02	9.335102e-03	1.424223e-05
206           	1.548197e-03	1.085187e-02	9.011732e-03	1.403057e-05
207           	1.508024e-03	1.053581e-02	8.694035e-03	1.382693e-05
208           	1.467371e-03	1.022747e-02	8.384316e-03	1.364669e-05
209           	1.427825e-03	9.933864e-03	8.101233e-03	1.371990e-05
210           	1.375667e-03	9.755563e-03	7.959978e-03	1.335648e-05
211           	1.349236e-03	9.468594e-03	7.596986e-03	1.300751e-05
212           	1.326488e-03	9.101290e-03	7.236024e-03	1.278932e-05
213           	1.279663e-03	8.788490e-03	7.225971e-03	1.250174e-05
214           	1.248446e-03	8.541822e-03	7.206789e-03	1.188727e-05
215           	1.225730e-03	8.214462e-03	6.954388e-03	1.163508e-05
216           	1.203036e-03	7.881687e-03	6.663864e-03	1.158067e-05
217           	1.159829e-03	7.730290e-03	6.556539e-03	1.151686e-05
218           	1.114404e-03	7.713813e-03	6.625173e-03	1.094141e-05
219           	1.081797e-03	7.538829e-03	6.452142e-03	1.073037e-05
220           	1.050883e-03	7.392545e-03	6.259537e-03	1.025218e-05
221           	1.017444e-03	7.133274e-03	5.970994e-03	1.006414e-05
222           	9.774537e-04	6.961823e-03	5.793322e-03	9.695731e-06
223           	9.294666e-04	6.778743e-03	5.647770e-03	9.315369e-06
224           	8.863015e-04	6.535999e-03	5.496533e-03	8.868158e-06
225           	8.506323e-04	6.232731e-03	5.303927e-03	8.485805e-06
226           	8.198898e-04	5.917900e-03	5.083184e-03	8.117284e-06
227           	7.909258e-04	5.631651e-03	4.857467e-03	7.736607e-06
228           	7.619075e-04	5.373041e-03	4.639029e-03	7.352808e-06
229           	7.339947e-04	5.126823e-03	4.431993e-03	6.985803e-06
230           	7.099059e-04	4.900252e-03	4.234880e-03	6.652116e-06
231           	6.894886e-04	4.692498e-03	4.051769e-03	6.345605e-06
232           	6.711507e-04	4.518264e-03	3.900305e-03	6.057528e-06
233           	6.536605e-04	4.369510e-03	3.777007e-03	5.779094e-06
234           	6.366967e-04	4.227549e-03	3.659501e-03	5.522057e-06
235           	6.202900e-04	4.086694e-03	3.533321e-03	5.283774e-06
236           	6.045293e-04	3.950004e-03	3.398634e-03	5.064223e-06
237           	5.893435e-04	3.825544e-03	3.269463e-03	4.859652e-06
238           	5.747251e-04	3.713911e-03	3.155814e-03	4.674324e-06
239           	5.609465e-04	3.611104e-03	3.056643e-03	4.507719e-06
240           	5.484241e-04	3.508799e-03	2.963030e-03	4.356488e-06
241           	5.370575e-04	3.405275e-03	2.866736e-03	4.214896e-06
242           	5.259064e-04	3.303071e-03	2.768025e-03	4.086578e-06
243           	5.144686e-04	3.205070e-03	2.674547e-03	3.973535e-06
244           	5.028096e-04	3.114053e-03	2.590610e-03	3.864806e-06
245           	4.912225e-04	3.030815e-03	2.515358e-03	3.757153e-06
246           	4.804233e-04	2.952155e-03	2.443792e-03	3.650477e-06
247           	4.707814e-04	2.875236e-03	2.372001e-03	3.543680e-06
248           	4.617928e-04	2.802079e-03	2.297959e-03	3.440051e-06
249           	4.522835e-04	2.731691e-03	2.225558e-03	3.338590e-06
250           	4.428107e-04	2.658308e-03	2.148917e-03	3.259532e-06
251           	4.325712e-04	2.604229e-03	2.106539e-03	3.159622e-06
252           	4.234771e-04	2.547829e-03	2.048085e-03	3.061072e-06
253           	4.151358e-04	2.494438e-03	1.995185e-03	2.973442e-06
254           	4.109023e-04	2.437749e-03	1.960052e-03	2.889619e-06
255           	4.035451e-04	2.380156e-03	1.892695e-03	2.800996e-06
256           	3.959916e-04	2.328470e-03	1.832076e-03	2.736189e-06
257           	3.880710e-04	2.285011e-03	1.787193e-03	2.665911e-06
258           	3.803549e-04	2.243297e-03	1.758063e-03	2.591407e-06
259           	3.737191e-04	2.194246e-03	1.736282e-03	2.522165e-06
260           	3.684987e-04	2.138951e-03	1.711911e-03	2.461636e-06
261           	3.639992e-04	2.086716e-03	1.677314e-03	2.403937e-06
262           	3.589797e-04	2.038350e-03	1.631204e-03	2.348312e-06
263           	3.528455e-04	1.986729e-03	1.580122e-03	2.298568e-06
264           	3.460129e-04	1.935125e-03	1.533231e-03	2.247482e-06
265           	3.389456e-04	1.885093e-03	1.493921e-03	2.190788e-06
266           	3.321331e-04	1.834919e-03	1.459568e-03	2.131094e-06
267           	3.258375e-04	1.783870e-03	1.425588e-03	2.070394e-06
268           	3.198921e-04	1.733705e-03	1.387308e-03	2.011138e-06
269           	3.140067e-04	1.685450e-03	1.343412e-03	1.953223e-06
270           	3.078460e-04	1.637313e-03	1.295565e-03	1.899177e-06
271           	3.014019e-04	1.590155e-03	1.248276e-03	1.846398e-06
272           	2.948315e-04	1.544160e-03	1.203743e-03	1.791678e-06
273           	2.883227e-04	1.499533e-03	1.162334e-03	1.737154e-06
274           	2.820234e-04	1.456577e-03	1.123695e-03	1.685570e-06
275           	2.760110e-04	1.415764e-03	1.087043e-03	1.635697e-06
276           	2.701941e-04	1.377401e-03	1.051979e-03	1.592899e-06
277           	2.645222e-04	1.341310e-03	1.019097e-03	1.554639e-06
278           	2.589494e-04	1.306437e-03	9.892700e-04	1.521004e-06
279           	2.534435e-04	1.272260e-03	9.626988e-04	1.491863e-06
280           	2.480539e-04	1.239020e-03	9.398790e-04	1.466292e-06
281           	2.428412e-04	1.206940e-03	9.192180e-04	1.442875e-06
282           	2.378714e-04	1.175636e-03	8.985859e-04	1.422524e-06
283           	2.331008e-04	1.144889e-03	8.777817e-04	1.403326e-06
284           	2.285193e-04	1.115457e-03	8.575083e-04	1.383602e-06
285           	2.241580e-04	1.087922e-03	8.383653e-04	1.364615e-06
286           	2.200100e-04	1.062202e-03	8.201002e-04	1.345763e-06
287           	2.160888e-04	1.037851e-03	8.017091e-04	1.327988e-06
288           	2.124013e-04	1.014068e-03	7.822739e-04	1.312160e-06
289           	2.089482e-04	9.907715e-04	7.616010e-04	1.297902e-06
290           	2.056996e-04	9.680589e-04	7.407538e-04	1.285321e-06
291           	2.026254e-04	9.466720e-04	7.210889e-04	1.274354e-06
292           	1.996965e-04	9.269214e-04	7.031998e-04	1.263017e-06
293           	1.969029e-04	9.083436e-04	6.869302e-04	1.250679e-06
294           	1.942237e-04	8.904095e-04	6.715295e-04	1.236276e-06
295           	1.916273e-04	8.724931e-04	6.565290e-04	1.220741e-06
296           	1.890563e-04	8.544587e-04	6.416551e-04	1.203515e-06
297           	1.864602e-04	8.365145e-04	6.271172e-04	1.185765e-06
298           	1.838432e-04	8.190830e-04	6.136586e-04	1.167351e-06
299           	1.812015e-04	8.024610e-04	6.019006e-04	1.148315e-06
300           	1.785232e-04	7.864546e-04	5.914761e-04	1.128642e-06
301           	1.758337e-04	7.704529e-04	5.816160e-04	1.109131e-06
302           	1.731350e-04	7.541857e-04	5.718067e-04	1.090263e-06
303           	1.704120e-04	7.375636e-04	5.620975e-04	1.072135e-06
304           	1.676597e-04	7.207591e-04	5.526256e-04	1.055119e-06
305           	1.648904e-04	7.042454e-04	5.432101e-04	1.038696e-06
306           	1.621116e-04	6.882963e-04	5.339321e-04	1.022705e-06
307           	1.593430e-04	6.730424e-04	5.246560e-04	1.007418e-06
308           	1.566058e-04	6.582123e-04	5.151335e-04	9.939591e-07
309           	1.539038e-04	6.437038e-04	5.051833e-04	9.806051e-07
310           	1.512343e-04	6.293905e-04	4.950430e-04	9.692168e-07
311           	1.486130e-04	6.156733e-04	4.849056e-04	9.594886e-07
312           	1.460328e-04	6.026237e-04	4.750832e-04	9.513081e-07
313           	1.434851e-04	5.903820e-04	4.657212e-04	9.453480e-07
314           	1.409870e-04	5.788036e-04	4.566209e-04	9.410000e-07
315           	1.385255e-04	5.678823e-04	4.477415e-04	9.381094e-07
316           	1.360872e-04	5.575733e-04	4.390014e-04	9.357296e-07
317           	1.336907e-04	5.477240e-04	4.304421e-04	9.346700e-07
318           	1.313224e-04	5.382608e-04	4.222793e-04	9.337357e-07
319           	1.289892e-04	5.291007e-04	4.145810e-04	9.325139e-07
320           	1.266903e-04	5.202737e-04	4.074542e-04	9.327037e-07
321           	1.244323e-04	5.117162e-04	4.008095e-04	9.327035e-07
322           	1.222059e-04	5.034988e-04	3.945010e-04	9.319577e-07
323           	1.200150e-04	4.955112e-04	3.883903e-04	9.312593e-07
324           	1.178637e-04	4.875700e-04	3.824708e-04	9.296098e-07
325           	1.157719e-04	4.796252e-04	3.767021e-04	9.289260e-07
326           	1.137451e-04	4.717096e-04	3.710757e-04	9.273338e-07
327           	1.117754e-04	4.637936e-04	3.656788e-04	9.244161e-07
328           	1.098636e-04	4.559783e-04	3.604263e-04	9.202887e-07
329           	1.080017e-04	4.483361e-04	3.553350e-04	9.157855e-07
330           	1.061935e-04	4.408589e-04	3.503761e-04	9.117712e-07
331           	1.044405e-04	4.336018e-04	3.456321e-04	9.078531e-07
332           	1.027459e-04	4.264396e-04	3.409399e-04	9.040190e-07
333           	1.011108e-04	4.194582e-04	3.362381e-04	8.999345e-07
334           	9.954067e-05	4.126017e-04	3.315308e-04	8.952399e-07
335           	9.802921e-05	4.058903e-04	3.268306e-04	8.907180e-07
336           	9.657820e-05	3.993871e-04	3.220742e-04	8.862599e-07
337           	9.493646e-05	3.887310e-04	3.116054e-04	9.265069e-07
338           	9.377704e-05	3.867971e-04	3.108644e-04	8.946217e-07
339           	9.259127e-05	3.841594e-04	3.106953e-04	8.762776e-07
340           	9.108015e-05	3.737718e-04	3.007372e-04	9.021735e-07
341           	9.005700e-05	3.708412e-04	3.002196e-04	8.657510e-07
342           	8.892253e-05	3.663573e-04	2.980316e-04	8.535218e-07
343           	8.747853e-05	3.558462e-04	2.872873e-04	8.807232e-07
344           	8.640597e-05	3.523428e-04	2.840868e-04	8.498473e-07
345           	8.527902e-05	3.484066e-04	2.813326e-04	8.336876e-07
346           	8.389925e-05	3.384681e-04	2.716852e-04	8.582434e-07
347           	8.295973e-05	3.362026e-04	2.713296e-04	8.220955e-07
348           	8.162836e-05	3.274313e-04	2.630518e-04	8.517590e-07
349           	8.076861e-05	3.267551e-04	2.658045e-04	8.034512e-07
350           	7.946362e-05	3.179288e-04	2.577999e-04	8.268107e-07
351           	7.859988e-05	3.163913e-04	2.601438e-04	7.791996e-07
352           	7.732724e-05	3.071597e-04	2.515969e-04	8.011073e-07
353           	7.646351e-05	3.049666e-04	2.520539e-04	7.603567e-07
354           	7.524000e-05	2.961785e-04	2.435814e-04	7.821378e-07
355           	7.443541e-05	2.947612e-04	2.440653e-04	7.421392e-07
356           	7.327375e-05	2.864642e-04	2.362328e-04	7.648671e-07
357           	7.223993e-05	2.797432e-04	2.297694e-04	7.787022e-07
358           	7.167158e-05	2.824417e-04	2.363550e-04	7.234462e-07
359           	7.059490e-05	2.746071e-04	2.300420e-04	7.475283e-07
360           	6.960126e-05	2.674044e-04	2.239913e-04	7.506125e-07
361           	6.902659e-05	2.687521e-04	2.303759e-04	7.012811e-07
362           	6.798730e-05	2.605868e-04	2.233346e-04	7.273027e-07
363           	6.703389e-05	2.533932e-04	2.164093e-04	7.323065e-07
364           	6.644870e-05	2.542204e-04	2.194739e-04	6.872911e-07
365           	6.547347e-05	2.468174e-04	2.127495e-04	7.110537e-07
366           	6.459876e-05	2.404887e-04	2.066459e-04	7.193573e-07
367           	6.411342e-05	2.420687e-04	2.110893e-04	6.730337e-07
368           	6.318557e-05	2.348380e-04	2.046371e-04	7.012467e-07
369           	6.233946e-05	2.284119e-04	1.985098e-04	7.095078e-07
370           	6.157380e-05	2.236700e-04	1.940478e-04	7.262728e-07
371           	6.121215e-05	2.279452e-04	2.018799e-04	6.632208e-07
372           	6.034244e-05	2.209337e-04	1.957108e-04	6.923016e-07
373           	5.953364e-05	2.142374e-04	1.891437e-04	6.919270e-07
374           	5.878692e-05	2.090562e-04	1.838886e-04	7.063926e-07
375           	5.838373e-05	2.122824e-04	1.892331e-04	6.553779e-07
376           	5.755668e-05	2.059115e-04	1.832888e-04	6.826024e-07
377           	5.680181e-05	2.001136e-04	1.774377e-04	6.866072e-07
378           	5.610876e-05	1.957011e-04	1.729608e-04	7.008997e-07
379           	5.576428e-05	1.996825e-04	1.791583e-04	6.452362e-07
380           	5.496930e-05	1.933569e-04	1.734513e-04	6.748920e-07
381           	5.422927e-05	1.874961e-04	1.676913e-04	6.758026e-07
382           	5.353895e-05	1.831125e-04	1.633053e-04	6.894826e-07
383           	5.315755e-05	1.875250e-04	1.695475e-04	6.373367e-07
384           	5.238758e-05	1.816599e-04	1.643630e-04	6.642278e-07
385           	5.167602e-05	1.760868e-04	1.590402e-04	6.659579e-07
386           	5.100823e-05	1.717649e-04	1.549170e-04	6.800003e-07
387           	5.038243e-05	1.688954e-04	1.522374e-04	6.939021e-07
388           	5.004272e-05	1.756804e-04	1.610596e-04	6.264695e-07
389           	4.929250e-05	1.696020e-04	1.562515e-04	6.555773e-07
390           	4.859021e-05	1.636005e-04	1.507829e-04	6.490900e-07
391           	4.793289e-05	1.590142e-04	1.462462e-04	6.593115e-07
392           	4.732438e-05	1.559770e-04	1.429521e-04	6.729963e-07
393           	4.694041e-05	1.621714e-04	1.493977e-04	6.099687e-07
394           	4.625259e-05	1.567436e-04	1.449456e-04	6.360671e-07
395           	4.561052e-05	1.515281e-04	1.401454e-04	6.322750e-07
396           	4.501934e-05	1.477337e-04	1.363773e-04	6.438153e-07
397           	4.447024e-05	1.453695e-04	1.338614e-04	6.590757e-07
398           	4.395591e-05	1.443110e-04	1.326623e-04	6.670204e-07
399           	4.363333e-05	1.529547e-04	1.419898e-04	5.973919e-07
400           	4.303615e-05	1.470585e-04	1.375818e-04	6.328076e-07
401           	4.248980e-05	1.411792e-04	1.322268e-04	6.230185e-07
402           	4.199100e-05	1.368140e-04	1.275942e-04	6.293935e-07
403           	4.153182e-05	1.339946e-04	1.239814e-04	6.428488e-07
404           	4.110369e-05	1.328181e-04	1.218129e-04	6.525375e-07
405           	4.080651e-05	1.406591e-04	1.288158e-04	5.857378e-07
406           	4.031596e-05	1.361198e-04	1.255571e-04	6.217635e-07
407           	3.986805e-05	1.313501e-04	1.217010e-04	6.177418e-07
408           	3.946140e-05	1.277970e-04	1.186925e-04	6.306712e-07
409           	3.908231e-05	1.255044e-04	1.166454e-04	6.492877e-07
410           	3.872116e-05	1.244874e-04	1.156558e-04	6.598325e-07
411           	3.846258e-05	1.314117e-04	1.232996e-04	5.863213e-07
412           	3.805086e-05	1.271853e-04	1.198100e-04	6.244747e-07
413           	3.767770e-05	1.229374e-04	1.154099e-04	6.137455e-07
414           	3.733443e-05	1.199333e-04	1.117043e-04	6.217201e-07
415           	3.701015e-05	1.179720e-04	1.088734e-04	6.386011e-07
416           	3.669859e-05	1.170050e-04	1.072376e-04	6.510131e-07
417           	3.646884e-05	1.222482e-04	1.132924e-04	5.816361e-07
418           	3.611606e-05	1.185755e-04	1.104053e-04	6.205922e-07
419           	3.579736e-05	1.147250e-04	1.069290e-04	6.145018e-07
420           	3.550768e-05	1.120561e-04	1.042708e-04	6.265779e-07
421           	3.523265e-05	1.103957e-04	1.024736e-04	6.469448e-07
422           	3.496183e-05	1.097235e-04	1.016136e-04	6.602043e-07
423           	3.476452e-05	1.153144e-04	1.086685e-04	5.839049e-07
424           	3.443975e-05	1.117072e-04	1.054195e-04	6.239044e-07
425           	3.414192e-05	1.078974e-04	1.013218e-04	6.114786e-07
426           	3.386228e-05	1.050965e-04	9.790864e-05	6.175578e-07
427           	3.358838e-05	1.031059e-04	9.528859e-05	6.341239e-07
428           	3.331571e-05	1.019496e-04	9.369006e-05	6.464966e-07
429           	3.311344e-05	1.058181e-04	9.925415e-05	5.774039e-07
430           	3.280941e-05	1.027594e-04	9.658479e-05	6.148641e-07
431           	3.253042e-05	9.954906e-05	9.341058e-05	6.086551e-07
432           	3.227168e-05	9.735459e-05	9.103728e-05	6.202545e-07
433           	3.201781e-05	9.592881e-05	8.946482e-05	6.400820e-07
434           	3.176248e-05	9.517116e-05	8.872433e-05	6.524745e-07
435           	3.156030e-05	9.971096e-05	9.559322e-05	5.748385e-07
436           	3.125943e-05	9.648721e-05	9.264144e-05	6.139838e-07
437           	3.098100e-05	9.305861e-05	8.887787e-05	6.004682e-07
438           	3.071304e-05	9.047080e-05	8.575304e-05	6.041203e-07
439           	3.044743e-05	8.853456e-05	8.336908e-05	6.175697e-07
440           	3.018096e-05	8.731675e-05	8.190657e-05	6.275231e-07
441           	2.991703e-05	8.689809e-05	8.145723e-05	6.338650e-07
442           	2.966391e-05	8.685980e-05	8.172561e-05	6.386545e-07
443           	2.942433e-05	8.663084e-05	8.219822e-05	6.401276e-07
444           	2.919237e-05	8.594019e-05	8.242294e-05	6.371705e-07
445           	2.896011e-05	8.487519e-05	8.217700e-05	6.311617e-07
446           	2.872220e-05	8.358264e-05	8.145434e-05	6.229006e-07