# Residuals   
# Time        	Ux            	Uy            	Uz            	p             
0             	N/A	N/A
1             	1.000000e+00	1.000000e+00	1.000000e+00	1.000000e+00
2             	1.090405e-01	2.402347e-01	2.461719e-01	1.156316e-02
3             	3.307701e-01	3.233866e-01	3.062991e-01	5.789279e-05
4             	2.341022e-01	2.042978e-01	2.063967e-01	4.376881e-05
5             	7.819111e-02	1.278022e-01	1.225101e-01	1.496768e-04
6             	1.419159e-01	1.321123e-01	1.183798e-01	1.209355e-04
7             	1.365480e-01	1.355530e-01	1.308033e-01	9.107201e-05
8             	7.609949e-02	1.048472e-01	1.074079e-01	2.205937e-04
9             	9.973000e-02	9.819982e-02	9.555494e-02	1.562223e-04
10            	7.853208e-02	9.181372e-02	9.030193e-02	9.786835e-05
11            	5.368454e-02	7.832144e-02	7.960493e-02	1.739858e-04
12            	5.376299e-02	7.436349e-02	7.121574e-02	8.345235e-04
13            	4.568548e-02	6.827243e-02	6.480926e-02	2.437165e-04
14            	4.306809e-02	6.485473e-02	6.382009e-02	5.157170e-04
15            	4.057112e-02	6.657387e-02	6.625049e-02	3.707459e-04
16            	3.650808e-02	6.678139e-02	6.658193e-02	1.878612e-04
17            	3.683641e-02	6.421649e-02	6.412589e-02	2.361482e-04
18            	3.421724e-02	6.083946e-02	5.965186e-02	5.523765e-04
19            	3.222288e-02	6.177382e-02	5.997678e-02	5.040355e-03
20            	3.191743e-02	6.522325e-02	6.399529e-02	3.781841e-03
21            	2.984372e-02	6.654451e-02	6.450062e-02	8.758688e-04
22            	2.999021e-02	6.544216e-02	6.212119e-02	5.768295e-04
23            	3.162095e-02	6.489764e-02	6.089337e-02	5.179670e-04
24            	3.021206e-02	6.580910e-02	6.186053e-02	5.920486e-04
25            	2.931202e-02	6.917220e-02	6.514628e-02	7.606203e-04
26            	2.925442e-02	7.169810e-02	6.807646e-02	9.039047e-04
27            	2.944113e-02	7.218828e-02	6.825630e-02	8.216988e-04
28            	3.002321e-02	7.173955e-02	6.720461e-02	6.835710e-04
29            	3.008083e-02	7.273425e-02	6.814802e-02	5.690146e-04
30            	2.942248e-02	7.487868e-02	7.116231e-02	5.291741e-04
31            	2.868217e-02	7.659053e-02	7.370909e-02	6.078411e-04
32            	2.861781e-02	7.687122e-02	7.416447e-02	6.936383e-04
33            	2.890701e-02	7.630018e-02	7.369057e-02	7.367763e-04
34            	2.881086e-02	7.606164e-02	7.364907e-02	7.482054e-04
35            	2.829538e-02	7.667612e-02	7.408067e-02	7.511464e-04
36            	2.768629e-02	7.746622e-02	7.467729e-02	7.340939e-04
37            	2.745184e-02	7.809130e-02	7.465029e-02	6.708037e-04
38            	2.754574e-02	7.795985e-02	7.341150e-02	6.675777e-04
39            	2.745470e-02	7.796953e-02	7.288661e-02	6.757976e-04
40            	2.707109e-02	7.829803e-02	7.330805e-02	6.762082e-04
41            	2.656922e-02	7.876164e-02	7.423922e-02	6.787480e-04
42            	2.618945e-02	7.905010e-02	7.467049e-02	6.961854e-04
43            	2.603178e-02	7.926685e-02	7.437342e-02	7.003553e-04
44            	2.576251e-02	7.933749e-02	7.416157e-02	6.647040e-04
45            	2.551634e-02	7.976729e-02	7.402207e-02	6.922111e-04
46            	2.517841e-02	8.052442e-02	7.450906e-02	6.621849e-04
47            	2.505893e-02	8.154755e-02	7.505118e-02	6.624566e-04
48            	2.497925e-02	8.250257e-02	7.528576e-02	6.573675e-04
49            	2.498357e-02	8.357475e-02	7.593928e-02	6.475388e-04
50            	2.497193e-02	8.514664e-02	7.682714e-02	6.297593e-04
51            	2.493587e-02	8.728785e-02	7.841399e-02	6.139620e-04
52            	2.483081e-02	9.010526e-02	8.020760e-02	5.879580e-04
53            	2.483111e-02	9.287404e-02	8.169181e-02	5.662587e-04
54            	2.492036e-02	9.498579e-02	8.263763e-02	5.411333e-04
55            	2.491367e-02	9.630602e-02	8.309734e-02	5.294431e-04
56            	2.474419e-02	9.655309e-02	8.327993e-02	5.217386e-04
57            	2.449040e-02	9.617246e-02	8.304239e-02	5.102583e-04
58            	2.417801e-02	9.550220e-02	8.240644e-02	4.962255e-04
59            	2.381798e-02	9.494204e-02	8.144532e-02	4.783594e-04
60            	2.338941e-02	9.441320e-02	8.071691e-02	4.729995e-04
61            	2.278169e-02	9.422320e-02	8.013054e-02	4.621538e-04
62            	2.205687e-02	9.443208e-02	7.961146e-02	4.441658e-04
63            	2.137702e-02	9.412934e-02	7.888702e-02	4.185182e-04
64            	2.082720e-02	9.396266e-02	7.779840e-02	3.892279e-04
65            	2.029259e-02	9.409827e-02	7.655841e-02	3.599219e-04
66            	1.976114e-02	9.463523e-02	7.563168e-02	3.346426e-04
67            	1.916502e-02	9.465648e-02	7.466202e-02	3.085456e-04
68            	1.859183e-02	9.379443e-02	7.357743e-02	2.880023e-04
69            	1.808143e-02	9.189340e-02	7.159057e-02	2.682693e-04
70            	1.758042e-02	8.999163e-02	6.925609e-02	2.506988e-04
71            	1.699134e-02	8.804560e-02	6.695290e-02	2.361009e-04
72            	1.631406e-02	8.604336e-02	6.505982e-02	2.233090e-04
73            	1.562308e-02	8.438882e-02	6.365424e-02	2.111720e-04
74            	1.500676e-02	8.301055e-02	6.221998e-02	1.993528e-04
75            	1.448640e-02	8.187151e-02	6.081832e-02	1.899384e-04
76            	1.396676e-02	8.054364e-02	5.953403e-02	1.833797e-04
77            	1.349807e-02	7.873394e-02	5.831652e-02	1.777587e-04
78            	1.310860e-02	7.639153e-02	5.703463e-02	1.725195e-04
79            	1.283260e-02	7.387557e-02	5.549668e-02	1.664878e-04
80            	1.264385e-02	7.169532e-02	5.372413e-02	1.599741e-04
81            	1.242664e-02	7.005796e-02	5.188324e-02	1.528430e-04
82            	1.215600e-02	6.920025e-02	5.029313e-02	1.439258e-04
83            	1.187082e-02	6.868844e-02	4.911300e-02	1.355009e-04
84            	1.159970e-02	6.806729e-02	4.814672e-02	1.273603e-04
85            	1.133164e-02	6.748092e-02	4.713476e-02	1.196728e-04
86            	1.105754e-02	6.688755e-02	4.596850e-02	1.128429e-04
87            	1.078178e-02	6.620234e-02	4.481588e-02	1.071612e-04
88            	1.053210e-02	6.522956e-02	4.404523e-02	1.030845e-04
89            	1.029857e-02	6.399213e-02	4.344459e-02	9.997516e-05
90            	1.011564e-02	6.252933e-02	4.274693e-02	9.715431e-05
91            	9.894938e-03	6.094545e-02	4.186462e-02	9.439747e-05
92            	9.639121e-03	5.960755e-02	4.094185e-02	9.068629e-05
93            	9.355250e-03	5.862083e-02	3.997089e-02	8.711901e-05
94            	9.039646e-03	5.777909e-02	3.893329e-02	8.284487e-05
95            	8.719633e-03	5.686948e-02	3.782989e-02	7.912251e-05
96            	8.412789e-03	5.562939e-02	3.673118e-02	7.728778e-05
97            	8.114805e-03	5.422707e-02	3.574355e-02	7.533370e-05
98            	7.816053e-03	5.300808e-02	3.489826e-02	7.293849e-05
99            	7.527296e-03	5.187886e-02	3.408150e-02	7.033271e-05
100           	7.272248e-03	5.068915e-02	3.323400e-02	6.847124e-05
101           	7.049904e-03	4.934692e-02	3.250940e-02	6.571841e-05
102           	6.868588e-03	4.808950e-02	3.207021e-02	6.300556e-05
103           	6.676307e-03	4.698242e-02	3.165686e-02	6.066273e-05
104           	6.494954e-03	4.600750e-02	3.104533e-02	5.865636e-05
105           	6.363985e-03	4.508320e-02	3.022071e-02	5.699856e-05
106           	6.276529e-03	4.437396e-02	2.933015e-02	5.554558e-05
107           	6.202075e-03	4.388935e-02	2.852503e-02	5.479821e-05
108           	6.126754e-03	4.352035e-02	2.799327e-02	5.342531e-05
109           	6.049902e-03	4.316681e-02	2.760769e-02	5.165329e-05
110           	5.980891e-03	4.273375e-02	2.722650e-02	5.059655e-05
111           	5.904662e-03	4.215297e-02	2.673836e-02	5.003244e-05
112           	5.827844e-03	4.147975e-02	2.620898e-02	4.946477e-05
113           	5.740201e-03	4.119339e-02	2.594446e-02	4.913446e-05
114           	5.657679e-03	4.115751e-02	2.582965e-02	4.971557e-05
115           	5.575374e-03	4.086911e-02	2.566731e-02	5.008506e-05
116           	5.472799e-03	4.031336e-02	2.545143e-02	5.034219e-05
117           	5.379363e-03	3.965973e-02	2.521757e-02	5.089185e-05
118           	5.295325e-03	3.907548e-02	2.496888e-02	5.141448e-05
119           	5.228411e-03	3.858911e-02	2.476966e-02	5.093612e-05
120           	5.175083e-03	3.807279e-02	2.461331e-02	5.068459e-05
121           	5.122143e-03	3.761528e-02	2.443747e-02	5.054073e-05
122           	5.067721e-03	3.724109e-02	2.433395e-02	5.090515e-05
123           	5.008768e-03	3.700047e-02	2.422001e-02	5.106282e-05
124           	4.949667e-03	3.658612e-02	2.402903e-02	5.047511e-05
125           	4.887552e-03	3.590377e-02	2.384918e-02	4.928150e-05
126           	4.824556e-03	3.514083e-02	2.368936e-02	4.720958e-05
127           	4.775524e-03	3.458787e-02	2.355749e-02	4.230548e-05
128           	4.760810e-03	3.434882e-02	2.338822e-02	4.975518e-05
129           	4.752948e-03	3.424175e-02	2.321558e-02	5.887114e-05
130           	4.728803e-03	3.411036e-02	2.305257e-02	6.164641e-05
131           	4.698288e-03	3.407176e-02	2.299102e-02	6.164034e-05
132           	4.666640e-03	3.430999e-02	2.311695e-02	6.069461e-05
133           	4.654318e-03	3.466583e-02	2.331034e-02	5.895255e-05
134           	4.661680e-03	3.492721e-02	2.342731e-02	5.637357e-05
135           	4.667861e-03	3.501413e-02	2.352055e-02	5.414587e-05
136           	4.664595e-03	3.498963e-02	2.370256e-02	5.299622e-05
137           	4.663861e-03	3.502452e-02	2.406216e-02	5.235134e-05
138           	4.676046e-03	3.509882e-02	2.457639e-02	5.171168e-05
139           	4.709157e-03	3.513601e-02	2.516348e-02	5.133493e-05
140           	4.742067e-03	3.519179e-02	2.578306e-02	5.038425e-05
141           	4.772008e-03	3.536966e-02	2.633310e-02	4.908344e-05
142           	4.789981e-03	3.560664e-02	2.684049e-02	4.776927e-05
143           	4.799623e-03	3.583968e-02	2.731487e-02	4.668098e-05
144           	4.792210e-03	3.601652e-02	2.759314e-02	4.533045e-05
145           	4.762610e-03	3.602682e-02	2.763485e-02	4.393380e-05
146           	4.705715e-03	3.575592e-02	2.744603e-02	4.264634e-05
147           	4.619957e-03	3.517815e-02	2.709833e-02	4.132327e-05
148           	4.507082e-03	3.453857e-02	2.677518e-02	4.028742e-05
149           	4.376753e-03	3.381100e-02	2.647403e-02	3.987729e-05
150           	4.241154e-03	3.317572e-02	2.620174e-02	3.988315e-05
151           	4.100423e-03	3.262950e-02	2.580618e-02	3.989676e-05
152           	3.958783e-03	3.198660e-02	2.534336e-02	3.894879e-05
153           	3.818415e-03	3.120870e-02	2.488656e-02	3.736338e-05
154           	3.690930e-03	3.034762e-02	2.447675e-02	3.515332e-05
155           	3.568682e-03	2.933487e-02	2.407091e-02	3.315444e-05
156           	3.436526e-03	2.818485e-02	2.365404e-02	3.124956e-05
157           	3.294602e-03	2.693999e-02	2.313024e-02	2.921331e-05
158           	3.148638e-03	2.573972e-02	2.248530e-02	2.745830e-05
159           	3.001677e-03	2.466435e-02	2.169852e-02	2.604541e-05
160           	2.860829e-03	2.361916e-02	2.076415e-02	2.519298e-05
161           	2.732694e-03	2.262711e-02	1.977376e-02	2.469985e-05
162           	2.607983e-03	2.177580e-02	1.873669e-02	2.422232e-05
163           	2.487729e-03	2.100723e-02	1.775390e-02	2.391094e-05
164           	2.372681e-03	2.033858e-02	1.684981e-02	2.351495e-05
165           	2.268511e-03	1.968667e-02	1.605395e-02	2.294737e-05
166           	2.170389e-03	1.897618e-02	1.539838e-02	2.228525e-05
167           	2.084365e-03	1.824917e-02	1.493830e-02	2.168755e-05
168           	2.010186e-03	1.756430e-02	1.451898e-02	2.109357e-05
169           	1.942193e-03	1.696278e-02	1.410798e-02	2.040384e-05
170           	1.876323e-03	1.640356e-02	1.360231e-02	1.960472e-05
171           	1.812046e-03	1.582288e-02	1.302776e-02	1.887448e-05
172           	1.748302e-03	1.523641e-02	1.243697e-02	1.818241e-05
173           	1.689931e-03	1.469029e-02	1.186176e-02	1.749746e-05
174           	1.638159e-03	1.419188e-02	1.130691e-02	1.686156e-05
175           	1.587826e-03	1.373054e-02	1.076329e-02	1.630573e-05
176           	1.537375e-03	1.330463e-02	1.025474e-02	1.579617e-05
177           	1.485079e-03	1.289731e-02	9.779935e-03	1.540903e-05
178           	1.433213e-03	1.252530e-02	9.372232e-03	1.500375e-05
179           	1.384404e-03	1.217558e-02	9.021964e-03	1.439497e-05
180           	1.337808e-03	1.182974e-02	8.749638e-03	1.369894e-05
181           	1.288608e-03	1.151703e-02	8.528971e-03	1.322183e-05
182           	1.238293e-03	1.123302e-02	8.354621e-03	1.277937e-05
183           	1.188503e-03	1.096980e-02	8.180305e-03	1.215804e-05
184           	1.140768e-03	1.069690e-02	7.969579e-03	1.140527e-05
185           	1.094489e-03	1.039204e-02	7.696963e-03	1.080414e-05
186           	1.048402e-03	1.006689e-02	7.367316e-03	1.023166e-05
187           	1.001888e-03	9.707504e-03	7.000451e-03	9.715156e-06
188           	9.567278e-04	9.323332e-03	6.615130e-03	9.174276e-06
189           	9.182021e-04	8.921751e-03	6.242941e-03	8.630217e-06
190           	8.838615e-04	8.512648e-03	5.908194e-03	8.188445e-06
191           	8.514676e-04	8.109631e-03	5.612171e-03	7.869799e-06
192           	8.206918e-04	7.715723e-03	5.356001e-03	7.583471e-06
193           	7.907848e-04	7.336585e-03	5.130293e-03	7.277630e-06
194           	7.618477e-04	6.978044e-03	4.920462e-03	6.949889e-06
195           	7.342462e-04	6.639949e-03	4.722851e-03	6.630138e-06
196           	7.085490e-04	6.334433e-03	4.533699e-03	6.318564e-06
197           	6.847372e-04	6.065651e-03	4.347693e-03	6.019395e-06
198           	6.641968e-04	5.824325e-03	4.168702e-03	5.738656e-06
199           	6.473477e-04	5.603859e-03	3.993429e-03	5.476398e-06
200           	6.316105e-04	5.407374e-03	3.820219e-03	5.246364e-06
201           	6.159554e-04	5.224630e-03	3.663221e-03	5.067124e-06
202           	6.009513e-04	5.055258e-03	3.541359e-03	4.953924e-06
203           	5.871099e-04	4.893484e-03	3.447931e-03	4.857876e-06
204           	5.730319e-04	4.738752e-03	3.366577e-03	4.777746e-06
205           	5.582968e-04	4.589900e-03	3.289419e-03	4.706951e-06
206           	5.433626e-04	4.448967e-03	3.204215e-03	4.621907e-06
207           	5.279723e-04	4.316300e-03	3.116650e-03	4.519876e-06
208           	5.128677e-04	4.196543e-03	3.028009e-03	4.389600e-06
209           	4.993190e-04	4.094863e-03	2.944207e-03	4.251116e-06
210           	4.869904e-04	4.007680e-03	2.868903e-03	4.109624e-06
211           	4.751517e-04	3.919605e-03	2.798299e-03	3.968690e-06
212           	4.635082e-04	3.829333e-03	2.729133e-03	3.827902e-06
213           	4.524695e-04	3.728853e-03	2.660474e-03	3.701163e-06
214           	4.418660e-04	3.624857e-03	2.592584e-03	3.578056e-06
215           	4.316367e-04	3.510850e-03	2.520290e-03	3.461027e-06
216           	4.204094e-04	3.375520e-03	2.417657e-03	3.361179e-06
217           	4.108179e-04	3.263540e-03	2.378249e-03	3.252383e-06
218           	3.994128e-04	3.143644e-03	2.289068e-03	3.142593e-06
219           	3.885785e-04	3.034675e-03	2.209045e-03	3.045802e-06
220           	3.782973e-04	2.934122e-03	2.138708e-03	2.938892e-06
221           	3.690456e-04	2.842712e-03	2.077642e-03	2.838314e-06
222           	3.603556e-04	2.752998e-03	2.014095e-03	2.742042e-06
223           	3.517632e-04	2.664659e-03	1.944757e-03	2.651798e-06
224           	3.424555e-04	2.579066e-03	1.877099e-03	2.563091e-06
225           	3.328943e-04	2.500329e-03	1.817961e-03	2.483671e-06
226           	3.233456e-04	2.428698e-03	1.770304e-03	2.417796e-06
227           	3.141268e-04	2.358737e-03	1.725014e-03	2.368949e-06
228           	3.053750e-04	2.288402e-03	1.676449e-03	2.316002e-06
229           	2.972884e-04	2.214108e-03	1.621927e-03	2.261004e-06
230           	2.894035e-04	2.137753e-03	1.562156e-03	2.198467e-06
231           	2.811391e-04	2.062018e-03	1.502274e-03	2.139896e-06
232           	2.726409e-04	1.989004e-03	1.446329e-03	2.076460e-06
233           	2.642725e-04	1.919885e-03	1.397071e-03	2.017414e-06
234           	2.562731e-04	1.855034e-03	1.353565e-03	1.960064e-06
235           	2.491804e-04	1.796686e-03	1.312773e-03	1.907514e-06
236           	2.429827e-04	1.745790e-03	1.274357e-03	1.856782e-06
237           	2.374149e-04	1.705672e-03	1.239859e-03	1.817747e-06
238           	2.323195e-04	1.675581e-03	1.209793e-03	1.781075e-06
239           	2.275199e-04	1.650960e-03	1.183657e-03	1.752776e-06
240           	2.229330e-04	1.627646e-03	1.159685e-03	1.724905e-06
241           	2.185886e-04	1.602304e-03	1.136534e-03	1.699384e-06
242           	2.145151e-04	1.575939e-03	1.112978e-03	1.670890e-06
243           	2.106410e-04	1.549644e-03	1.089981e-03	1.647433e-06
244           	2.070578e-04	1.524714e-03	1.068434e-03	1.623122e-06
245           	2.035573e-04	1.501185e-03	1.048258e-03	1.601336e-06
246           	2.000408e-04	1.477689e-03	1.028488e-03	1.575759e-06
247           	1.965658e-04	1.453090e-03	1.008359e-03	1.556166e-06
248           	1.930847e-04	1.426519e-03	9.851871e-04	1.533738e-06
249           	1.895391e-04	1.397314e-03	9.606859e-04	1.513941e-06
250           	1.859305e-04	1.367792e-03	9.340677e-04	1.492868e-06
251           	1.822291e-04	1.336426e-03	9.075225e-04	1.476515e-06
252           	1.784511e-04	1.303522e-03	8.813974e-04	1.457438e-06
253           	1.746862e-04	1.269707e-03	8.556892e-04	1.440258e-06
254           	1.709820e-04	1.235900e-03	8.312069e-04	1.418615e-06
255           	1.673548e-04	1.202225e-03	8.081359e-04	1.402072e-06
256           	1.639827e-04	1.169779e-03	7.876244e-04	1.385795e-06
257           	1.608157e-04	1.139570e-03	7.696142e-04	1.373658e-06
258           	1.577982e-04	1.111640e-03	7.540113e-04	1.361877e-06
259           	1.549419e-04	1.085406e-03	7.402868e-04	1.356798e-06
260           	1.522875e-04	1.060998e-03	7.275791e-04	1.345831e-06
261           	1.497753e-04	1.037456e-03	7.145038e-04	1.338500e-06
262           	1.474591e-04	1.014971e-03	7.009525e-04	1.329297e-06
263           	1.453346e-04	9.933642e-04	6.874564e-04	1.321814e-06
264           	1.432495e-04	9.718792e-04	6.735652e-04	1.306957e-06
265           	1.410820e-04	9.500059e-04	6.599463e-04	1.295048e-06
266           	1.388567e-04	9.280349e-04	6.468817e-04	1.278307e-06
267           	1.365938e-04	9.060804e-04	6.352602e-04	1.260516e-06
268           	1.344694e-04	8.847951e-04	6.249279e-04	1.241428e-06
269           	1.323561e-04	8.646642e-04	6.151158e-04	1.225131e-06
270           	1.303565e-04	8.459613e-04	6.052164e-04	1.206628e-06
271           	1.284191e-04	8.283130e-04	5.940415e-04	1.193290e-06
272           	1.265296e-04	8.121883e-04	5.817946e-04	1.174655e-06
273           	1.246857e-04	7.974167e-04	5.687481e-04	1.159525e-06
274           	1.229759e-04	7.843140e-04	5.558535e-04	1.143353e-06
275           	1.214198e-04	7.716820e-04	5.441079e-04	1.132327e-06
276           	1.199312e-04	7.594503e-04	5.337705e-04	1.118739e-06
277           	1.184790e-04	7.475232e-04	5.242188e-04	1.110352e-06
278           	1.170253e-04	7.358506e-04	5.147602e-04	1.097579e-06
279           	1.155214e-04	7.232231e-04	5.051603e-04	1.089187e-06
280           	1.140828e-04	7.106431e-04	4.952933e-04	1.080300e-06
281           	1.125971e-04	6.975350e-04	4.846913e-04	1.075200e-06
282           	1.111321e-04	6.841509e-04	4.739647e-04	1.068232e-06
283           	1.096288e-04	6.700580e-04	4.635150e-04	1.066259e-06
284           	1.081015e-04	6.558388e-04	4.536633e-04	1.061845e-06
285           	1.064914e-04	6.414923e-04	4.444002e-04	1.060119e-06
286           	1.048096e-04	6.270756e-04	4.361392e-04	1.056620e-06
287           	1.030687e-04	6.131998e-04	4.281907e-04	1.054107e-06
288           	1.013776e-04	6.001343e-04	4.203526e-04	1.048028e-06
289           	9.963292e-05	5.879655e-04	4.122807e-04	1.044690e-06
290           	9.790275e-05	5.775191e-04	4.042053e-04	1.037291e-06
291           	9.612683e-05	5.585799e-04	3.876642e-04	1.072460e-06
292           	9.432983e-05	5.592734e-04	3.881301e-04	1.039212e-06
293           	9.282306e-05	5.604753e-04	3.897786e-04	1.027160e-06
294           	9.121691e-05	5.428728e-04	3.746164e-04	1.053028e-06
295           	8.984191e-05	5.402908e-04	3.737432e-04	1.017102e-06
296           	8.857883e-05	5.376487e-04	3.708099e-04	1.008723e-06
297           	8.714160e-05	5.214930e-04	3.564624e-04	1.039499e-06
298           	8.549338e-05	5.192457e-04	3.540215e-04	1.003364e-06
299           	8.404123e-05	5.174806e-04	3.523336e-04	9.962765e-07
300           	8.276719e-05	5.101300e-04	3.476640e-04	9.843347e-07
301           	8.168148e-05	4.915474e-04	3.338592e-04	1.017770e-06
302           	8.047809e-05	4.855369e-04	3.316366e-04	9.803216e-07
303           	7.944967e-05	4.820087e-04	3.304294e-04	9.729317e-07
304           	7.833612e-05	4.655342e-04	3.182451e-04	1.002035e-06
305           	7.717018e-05	4.612172e-04	3.173195e-04	9.599956e-07
306           	7.607526e-05	4.561223e-04	3.160386e-04	9.493764e-07
307           	7.479254e-05	4.381449e-04	3.036023e-04	9.813299e-07
308           	7.342308e-05	4.312280e-04	3.016536e-04	9.388023e-07
309           	7.216801e-05	4.259073e-04	2.997346e-04	9.303122e-07
310           	7.083654e-05	4.107532e-04	2.880823e-04	9.544403e-07
311           	6.953070e-05	4.076477e-04	2.866006e-04	9.187197e-07
312           	6.824026e-05	3.972394e-04	2.776930e-04	9.490699e-07
313           	6.719042e-05	3.995404e-04	2.802125e-04	9.083304e-07
314           	6.602416e-05	3.903230e-04	2.719460e-04	9.358890e-07
315           	6.547756e-05	3.922165e-04	2.761057e-04	8.906157e-07
316           	6.446507e-05	3.825604e-04	2.671447e-04	9.221580e-07
317           	6.347856e-05	3.738446e-04	2.591385e-04	9.285564e-07
318           	6.296309e-05	3.787308e-04	2.665179e-04	8.830762e-07
319           	6.211254e-05	3.716095e-04	2.595182e-04	9.186258e-07
320           	6.126030e-05	3.636045e-04	2.528806e-04	9.150797e-07
321           	6.073208e-05	3.678547e-04	2.597823e-04	8.719330e-07
322           	6.001078e-05	3.598151e-04	2.527001e-04	9.022295e-07
323           	5.928637e-05	3.513725e-04	2.456126e-04	9.013768e-07
324           	5.897613e-05	3.549992e-04	2.506627e-04	8.568567e-07
325           	5.833590e-05	3.476136e-04	2.435842e-04	8.887717e-07
326           	5.768869e-05	3.396433e-04	2.367352e-04	8.867949e-07
327           	5.753970e-05	3.431522e-04	2.430913e-04	8.442823e-07
328           	5.689794e-05	3.354792e-04	2.354895e-04	8.764987e-07
329           	5.623403e-05	3.273685e-04	2.281722e-04	8.798386e-07
330           	5.585238e-05	3.309162e-04	2.327736e-04	8.393049e-07
331           	5.519530e-05	3.242861e-04	2.257830e-04	8.742950e-07
332           	5.450717e-05	3.172555e-04	2.193360e-04	8.756622e-07
333           	5.397383e-05	3.210857e-04	2.238665e-04	8.382505e-07
334           	5.330943e-05	3.143851e-04	2.176875e-04	8.705912e-07
335           	5.262670e-05	3.070202e-04	2.114646e-04	8.757777e-07
336           	5.196071e-05	3.023479e-04	2.075229e-04	8.826626e-07
337           	5.174206e-05	3.092194e-04	2.164230e-04	8.356854e-07
338           	5.109259e-05	3.018152e-04	2.102564e-04	8.625413e-07
339           	5.038508e-05	2.925737e-04	2.033173e-04	8.585042e-07
340           	4.970654e-05	2.865553e-04	1.986761e-04	8.645097e-07
341           	4.902229e-05	2.830429e-04	1.961649e-04	8.745145e-07
342           	4.885220e-05	2.898942e-04	2.062632e-04	8.190899e-07
343           	4.818532e-05	2.833650e-04	2.006119e-04	8.509906e-07
344           	4.744816e-05	2.750339e-04	1.937677e-04	8.414215e-07
345           	4.668885e-05	2.702072e-04	1.890038e-04	8.475053e-07
346           	4.594524e-05	2.681497e-04	1.865055e-04	8.534912e-07
347           	4.516705e-05	2.741822e-04	1.925953e-04	8.079327e-07
348           	4.450816e-05	2.707239e-04	1.893382e-04	8.331866e-07
349           	4.387536e-05	2.645492e-04	1.851975e-04	8.319993e-07
350           	4.328311e-05	2.605177e-04	1.826868e-04	8.370248e-07
351           	4.270569e-05	2.580394e-04	1.815434e-04	8.448858e-07
352           	4.267357e-05	2.661383e-04	1.905217e-04	7.877884e-07
353           	4.216204e-05	2.609322e-04	1.860891e-04	8.225948e-07
354           	4.161514e-05	2.530646e-04	1.803065e-04	8.135964e-07
355           	4.108410e-05	2.481977e-04	1.760487e-04	8.234435e-07
356           	4.052787e-05	2.457250e-04	1.736452e-04	8.278443e-07
357           	4.004092e-05	2.516523e-04	1.785821e-04	7.840216e-07
358           	3.956846e-05	2.470414e-04	1.750751e-04	8.093471e-07
359           	3.908944e-05	2.403588e-04	1.705526e-04	8.085718e-07
360           	3.862984e-05	2.364718e-04	1.675529e-04	8.146238e-07
361           	3.817402e-05	2.350830e-04	1.662099e-04	8.234216e-07
362           	3.772675e-05	2.354441e-04	1.660053e-04	8.218471e-07
363           	3.759749e-05	2.446443e-04	1.752180e-04	7.726949e-07
364           	3.719757e-05	2.398042e-04	1.709807e-04	7.999292e-07
365           	3.677622e-05	2.325239e-04	1.651275e-04	7.935193e-07
366           	3.639129e-05	2.281822e-04	1.609725e-04	7.958151e-07
367           	3.605200e-05	2.262674e-04	1.583370e-04	8.043669e-07
368           	3.573774e-05	2.260147e-04	1.569684e-04	8.023039e-07
369           	3.541866e-05	2.255750e-04	1.560087e-04	7.994857e-07
370           	3.512369e-05	2.245497e-04	1.553023e-04	7.942657e-07
371           	3.483488e-05	2.226860e-04	1.545743e-04	7.918739e-07
372           	3.452967e-05	2.206031e-04	1.539840e-04	7.867134e-07
373           	3.424308e-05	2.188881e-04	1.536321e-04	7.850026e-07
374           	3.397752e-05	2.177541e-04	1.533785e-04	7.787358e-07
375           	3.370380e-05	2.165164e-04	1.528856e-04	7.759767e-07
376           	3.346824e-05	2.153504e-04	1.522483e-04	7.720088e-07
377           	3.322386e-05	2.139723e-04	1.512061e-04	7.722990e-07
378           	3.296336e-05	2.121799e-04	1.497661e-04	7.700323e-07
379           	3.271669e-05	2.102685e-04	1.480110e-04	7.731052e-07
380           	3.246493e-05	2.085439e-04	1.462499e-04	7.710782e-07
381           	3.218410e-05	2.067863e-04	1.443926e-04	7.719848e-07
382           	3.192737e-05	2.053316e-04	1.426496e-04	7.705388e-07
383           	3.166957e-05	2.040840e-04	1.409910e-04	7.722661e-07
384           	3.142832e-05	2.028682e-04	1.396220e-04	7.703642e-07
385           	3.119966e-05	2.017988e-04	1.383418e-04	7.726210e-07
386           	3.095661e-05	2.007944e-04	1.373147e-04	7.699432e-07
387           	3.069748e-05	1.995283e-04	1.363623e-04	7.710381e-07
388           	3.043977e-05	1.984378e-04	1.355788e-04	7.687723e-07
389           	3.015625e-05	1.973947e-04	1.346276e-04	7.696186e-07
390           	2.986123e-05	1.962649e-04	1.336089e-04	7.668129e-07
391           	2.957853e-05	1.952972e-04	1.325880e-04	7.683317e-07
392           	2.929255e-05	1.944994e-04	1.318738e-04	7.639805e-07
393           	2.899506e-05	1.934568e-04	1.310453e-04	7.631661e-07
394           	2.874418e-05	1.924474e-04	1.303813e-04	7.603853e-07
395           	2.848777e-05	1.913902e-04	1.296537e-04	7.605633e-07
396           	2.824299e-05	1.903297e-04	1.290030e-04	7.567745e-07
397           	2.800388e-05	1.892177e-04	1.282297e-04	7.574195e-07
398           	2.776257e-05	1.882400e-04	1.275538e-04	7.529671e-07
399           	2.752085e-05	1.871212e-04	1.268417e-04	7.530184e-07
400           	2.730380e-05	1.860425e-04	1.262730e-04	7.503450e-07
401           	2.708050e-05	1.847558e-04	1.258533e-04	7.521564e-07
402           	2.684350e-05	1.833339e-04	1.255676e-04	7.500243e-07
403           	2.662698e-05	1.819865e-04	1.253613e-04	7.530875e-07
404           	2.640419e-05	1.810196e-04	1.253367e-04	7.507103e-07
405           	2.618599e-05	1.800614e-04	1.252196e-04	7.519569e-07
406           	2.597837e-05	1.792805e-04	1.250701e-04	7.504770e-07
407           	2.576709e-05	1.787278e-04	1.247350e-04	7.530385e-07
408           	2.555157e-05	1.782949e-04	1.242083e-04	7.526090e-07
409           	2.535024e-05	1.780098e-04	1.236028e-04	7.556936e-07
410           	2.515984e-05	1.778920e-04	1.227969e-04	7.547139e-07
411           	2.497761e-05	1.775227e-04	1.218944e-04	7.593213e-07
412           	2.482786e-05	1.770246e-04	1.209631e-04	7.595002e-07
413           	2.467154e-05	1.763414e-04	1.201633e-04	7.605662e-07
414           	2.449469e-05	1.755177e-04	1.194253e-04	7.570151e-07
415           	2.436672e-05	1.746507e-04	1.187910e-04	7.562979e-07
416           	2.424113e-05	1.738992e-04	1.181938e-04	7.479434e-07
417           	2.411420e-05	1.730587e-04	1.174922e-04	7.441977e-07
418           	2.402204e-05	1.722668e-04	1.169500e-04	7.393243e-07
419           	2.391581e-05	1.714053e-04	1.164262e-04	7.381541e-07
420           	2.380904e-05	1.704838e-04	1.159921e-04	7.335400e-07
421           	2.371488e-05	1.693578e-04	1.154580e-04	7.338168e-07
422           	2.360265e-05	1.683091e-04	1.148942e-04	7.283789e-07
423           	2.346152e-05	1.671903e-04	1.142853e-04	7.284604e-07
424           	2.334227e-05	1.665270e-04	1.137594e-04	7.255912e-07
425           	2.321150e-05	1.659665e-04	1.131527e-04	7.273068e-07
426           	2.307053e-05	1.651890e-04	1.124877e-04	7.257687e-07
427           	2.295106e-05	1.642939e-04	1.117699e-04	7.286696e-07
428           	2.281850e-05	1.634748e-04	1.110140e-04	7.247657e-07
429           	2.267230e-05	1.625033e-04	1.101103e-04	7.258776e-07
430           	2.253377e-05	1.619471e-04	1.092372e-04	7.241207e-07
431           	2.241046e-05	1.614695e-04	1.083854e-04	7.265914e-07
432           	2.228964e-05	1.611396e-04	1.076361e-04	7.256249e-07
433           	2.217439e-05	1.606902e-04	1.069067e-04	7.293380e-07
434           	2.205179e-05	1.601734e-04	1.063441e-04	7.276261e-07
435           	2.192366e-05	1.594876e-04	1.057095e-04	7.287449e-07
436           	2.182136e-05	1.590454e-04	1.052816e-04	7.264923e-07
437           	2.169957e-05	1.587512e-04	1.047528e-04	7.266903e-07
438           	2.157278e-05	1.586516e-04	1.042419e-04	7.241275e-07
439           	2.147488e-05	1.584608e-04	1.038770e-04	7.266418e-07
440           	2.136648e-05	1.585287e-04	1.035885e-04	7.234333e-07
441           	2.125807e-05	1.583462e-04	1.032274e-04	7.242818e-07
442           	2.116973e-05	1.581340e-04	1.030176e-04	7.219350e-07
443           	2.109495e-05	1.579934e-04	1.028814e-04	7.232826e-07
444           	2.100389e-05	1.577228e-04	1.027828e-04	7.196492e-07
445           	2.092455e-05	1.572805e-04	1.026543e-04	7.224507e-07
446           	2.083324e-05	1.568608e-04	1.025208e-04	7.198443e-07