# Residuals   
# Time        	Ux            	Uy            	Uz            	p             
0             	N/A	N/A
1             	1.000000e+00	1.000000e+00	1.000000e+00	1.000000e+00
2             	9.397178e-02	2.380646e-01	2.438632e-01	1.023307e-02
3             	2.685890e-01	3.157825e-01	2.657291e-01	7.341644e-05
4             	2.344660e-01	2.038219e-01	1.982344e-01	4.785930e-05
5             	7.377463e-02	1.492104e-01	1.388674e-01	1.996056e-04
6             	1.372521e-01	1.481719e-01	1.359978e-01	1.467477e-04
7             	1.450981e-01	1.499738e-01	1.421314e-01	1.327593e-04
8             	6.541124e-02	1.222753e-01	1.211721e-01	9.586857e-04
9             	9.831942e-02	1.186411e-01	1.145354e-01	1.608291e-04
10            	8.550162e-02	1.155073e-01	1.105379e-01	1.367797e-04
11            	4.953722e-02	9.552549e-02	9.300720e-02	4.414009e-04
12            	6.138070e-02	9.650003e-02	9.086232e-02	2.871609e-04
13            	5.655111e-02	9.572955e-02	9.019170e-02	4.907735e-04
14            	4.307015e-02	9.628750e-02	9.258343e-02	1.781343e-03
15            	4.604444e-02	1.038759e-01	9.725041e-02	5.007317e-04
16            	4.404752e-02	9.947777e-02	9.071056e-02	5.297614e-04
17            	3.776028e-02	9.226160e-02	8.176928e-02	1.157078e-03
18            	3.674292e-02	9.302459e-02	8.226907e-02	2.261555e-02
19            	3.322646e-02	9.531532e-02	8.518084e-02	3.598764e-03
20            	3.074773e-02	9.518934e-02	8.436110e-02	1.167292e-03
21            	3.035781e-02	9.382764e-02	8.197742e-02	6.364594e-04
22            	3.063051e-02	9.162523e-02	7.804632e-02	5.496103e-04
23            	2.944910e-02	9.063264e-02	7.466205e-02	6.201319e-04
24            	2.708341e-02	9.369372e-02	7.636104e-02	7.678094e-04
25            	2.521870e-02	9.607743e-02	7.776166e-02	8.130452e-04
26            	2.468113e-02	9.692980e-02	7.782768e-02	6.603322e-04
27            	2.426279e-02	9.729108e-02	7.782540e-02	5.284750e-04
28            	2.420183e-02	9.678977e-02	7.609689e-02	4.703368e-04
29            	2.386026e-02	9.746341e-02	7.649422e-02	4.692046e-04
30            	2.301672e-02	9.922412e-02	7.872332e-02	4.751097e-04
31            	2.305253e-02	1.015488e-01	7.970970e-02	4.961230e-04
32            	2.339454e-02	1.012348e-01	7.892186e-02	5.036151e-04
33            	2.337033e-02	1.002640e-01	7.780698e-02	4.689702e-04
34            	2.295276e-02	9.862479e-02	7.680163e-02	4.294759e-04
35            	2.251157e-02	9.785281e-02	7.621136e-02	3.662733e-04
36            	2.231644e-02	9.660632e-02	7.527654e-02	3.436847e-04
37            	2.203598e-02	9.546081e-02	7.370492e-02	3.236350e-04
38            	2.145330e-02	9.396425e-02	7.198681e-02	3.092604e-04
39            	2.069103e-02	9.236118e-02	7.094260e-02	2.926177e-04
40            	1.989466e-02	8.974109e-02	7.034321e-02	2.795627e-04
41            	1.940184e-02	8.745691e-02	6.944775e-02	2.680702e-04
42            	1.899132e-02	8.573257e-02	6.887695e-02	2.493331e-04
43            	1.857309e-02	8.410725e-02	6.785950e-02	2.179376e-04
44            	1.834768e-02	8.244234e-02	6.642809e-02	2.004592e-04
45            	1.816475e-02	8.029703e-02	6.516695e-02	1.816401e-04
46            	1.780472e-02	7.779086e-02	6.384821e-02	1.684144e-04
47            	1.726576e-02	7.520906e-02	6.228971e-02	1.663853e-04
48            	1.678865e-02	7.418256e-02	6.030065e-02	1.603452e-04
49            	1.633483e-02	7.387560e-02	5.810923e-02	1.515740e-04
50            	1.595749e-02	7.321404e-02	5.617318e-02	1.406730e-04
51            	1.561694e-02	7.192496e-02	5.477396e-02	1.298992e-04
52            	1.514328e-02	7.050879e-02	5.389348e-02	1.228632e-04
53            	1.468476e-02	6.956835e-02	5.308681e-02	1.168567e-04
54            	1.435252e-02	6.916156e-02	5.215995e-02	1.137261e-04
55            	1.405710e-02	6.835640e-02	5.107198e-02	1.096004e-04
56            	1.386539e-02	6.747156e-02	5.029217e-02	1.052974e-04
57            	1.366860e-02	6.695612e-02	4.968588e-02	1.011854e-04
58            	1.340943e-02	6.685690e-02	4.930723e-02	9.707673e-05
59            	1.314675e-02	6.721307e-02	4.934296e-02	9.333929e-05
60            	1.286319e-02	6.708512e-02	4.937362e-02	8.990705e-05
61            	1.257816e-02	6.613594e-02	4.905938e-02	8.571700e-05
62            	1.229815e-02	6.488434e-02	4.867192e-02	8.201395e-05
63            	1.195823e-02	6.416426e-02	4.824192e-02	7.936931e-05
64            	1.158710e-02	6.377140e-02	4.771340e-02	7.726500e-05
65            	1.125696e-02	6.307529e-02	4.728745e-02	7.626484e-05
66            	1.097059e-02	6.176373e-02	4.669291e-02	7.577423e-05
67            	1.073574e-02	6.017507e-02	4.607173e-02	7.549981e-05
68            	1.045878e-02	5.906632e-02	4.566690e-02	7.494645e-05
69            	1.013132e-02	5.852480e-02	4.524841e-02	7.455922e-05
70            	9.790257e-03	5.755923e-02	4.434456e-02	7.362366e-05
71            	9.508961e-03	5.599218e-02	4.273538e-02	7.378267e-05
72            	9.324458e-03	5.294431e-02	4.087264e-02	7.350788e-05
73            	9.080260e-03	5.135423e-02	3.956778e-02	7.110819e-05
74            	8.780405e-03	4.966421e-02	3.889607e-02	6.986242e-05
75            	8.476045e-03	4.860731e-02	3.826640e-02	6.860654e-05
76            	8.185658e-03	4.840106e-02	3.731383e-02	6.714909e-05
77            	7.891840e-03	4.795470e-02	3.580086e-02	6.585145e-05
78            	7.569236e-03	4.714853e-02	3.427152e-02	6.359371e-05
79            	7.304998e-03	4.543646e-02	3.247055e-02	6.031313e-05
80            	7.041953e-03	4.384842e-02	3.127479e-02	5.875864e-05
81            	6.794344e-03	4.239653e-02	3.030047e-02	5.634679e-05
82            	6.596616e-03	4.080695e-02	2.988398e-02	5.347477e-05
83            	6.392380e-03	3.929160e-02	2.912514e-02	5.112050e-05
84            	6.204843e-03	3.834257e-02	2.825138e-02	4.970220e-05
85            	6.030409e-03	3.773585e-02	2.733704e-02	4.892168e-05
86            	5.860719e-03	3.732287e-02	2.650908e-02	4.929074e-05
87            	5.676895e-03	3.677535e-02	2.574769e-02	4.917037e-05
88            	5.531806e-03	3.620994e-02	2.447571e-02	4.673795e-05
89            	5.390134e-03	3.563615e-02	2.395324e-02	4.515605e-05
90            	5.260523e-03	3.526713e-02	2.349110e-02	4.438901e-05
91            	5.157000e-03	3.495509e-02	2.288216e-02	4.402244e-05
92            	5.068205e-03	3.450516e-02	2.186911e-02	4.330189e-05
93            	4.983027e-03	3.410672e-02	2.090714e-02	4.247414e-05
94            	4.873475e-03	3.371364e-02	2.012406e-02	4.188070e-05
95            	4.739597e-03	3.388658e-02	1.945512e-02	4.105637e-05
96            	4.640273e-03	3.379800e-02	1.878608e-02	4.000836e-05
97            	4.607991e-03	3.264437e-02	1.817187e-02	3.901392e-05
98            	4.568418e-03	3.160239e-02	1.766130e-02	3.804466e-05
99            	4.466197e-03	3.161436e-02	1.714554e-02	3.727305e-05
100           	4.343201e-03	3.174844e-02	1.675488e-02	3.629807e-05
101           	4.246231e-03	3.143278e-02	1.638333e-02	3.531416e-05
102           	4.181677e-03	3.064786e-02	1.596914e-02	3.423798e-05
103           	4.115977e-03	2.983701e-02	1.549454e-02	3.268347e-05
104           	4.031807e-03	2.928943e-02	1.509953e-02	3.129372e-05
105           	3.912239e-03	2.890233e-02	1.477192e-02	3.046900e-05
106           	3.785565e-03	2.837820e-02	1.443302e-02	2.937572e-05
107           	3.658244e-03	2.774098e-02	1.410180e-02	2.805636e-05
108           	3.529098e-03	2.693202e-02	1.384717e-02	2.680587e-05
109           	3.402461e-03	2.606279e-02	1.363878e-02	2.546103e-05
110           	3.269389e-03	2.513860e-02	1.350240e-02	2.388381e-05
111           	3.152527e-03	2.420327e-02	1.334697e-02	2.226101e-05
112           	3.054020e-03	2.324499e-02	1.314978e-02	2.065415e-05
113           	2.968166e-03	2.223932e-02	1.285127e-02	1.927148e-05
114           	2.882564e-03	2.126529e-02	1.253251e-02	1.800539e-05
115           	2.791306e-03	2.039882e-02	1.218587e-02	1.688324e-05
116           	2.691025e-03	1.950923e-02	1.184887e-02	1.593774e-05
117           	2.586468e-03	1.854545e-02	1.149228e-02	1.523506e-05
118           	2.476338e-03	1.751320e-02	1.108579e-02	1.446164e-05
119           	2.356790e-03	1.641028e-02	1.057671e-02	1.363537e-05
120           	2.228457e-03	1.529508e-02	9.957685e-03	1.290400e-05
121           	2.110680e-03	1.389089e-02	9.295210e-03	1.244871e-05
122           	1.979957e-03	1.273498e-02	8.791036e-03	1.217000e-05
123           	1.872592e-03	1.190801e-02	8.139519e-03	1.203142e-05
124           	1.781483e-03	1.112664e-02	7.519552e-03	1.202054e-05
125           	1.696708e-03	1.029125e-02	6.994077e-03	1.188746e-05
126           	1.608589e-03	9.523548e-03	6.582772e-03	1.160052e-05
127           	1.524819e-03	8.859788e-03	6.265949e-03	1.111628e-05
128           	1.444129e-03	8.372226e-03	6.001116e-03	1.063543e-05
129           	1.392159e-03	8.065156e-03	5.834299e-03	1.015849e-05
130           	1.350113e-03	7.832152e-03	5.665130e-03	9.628648e-06
131           	1.306103e-03	7.614959e-03	5.479333e-03	9.153087e-06
132           	1.261079e-03	7.400418e-03	5.280235e-03	8.711616e-06
133           	1.212999e-03	7.201894e-03	5.027311e-03	8.314979e-06
134           	1.175377e-03	7.043441e-03	4.863539e-03	7.876574e-06
135           	1.126129e-03	6.865588e-03	4.561356e-03	7.360870e-06
136           	1.076433e-03	6.664153e-03	4.261619e-03	6.755160e-06
137           	1.029880e-03	6.428373e-03	3.970977e-03	6.142475e-06
138           	9.936274e-04	6.173076e-03	3.687761e-03	5.620778e-06
139           	9.583201e-04	5.907241e-03	3.389638e-03	5.167694e-06
140           	9.214357e-04	5.618523e-03	3.093382e-03	4.737197e-06
141           	8.867495e-04	5.333523e-03	2.835708e-03	4.330182e-06
142           	8.536250e-04	5.072611e-03	2.624434e-03	3.987256e-06
143           	8.220615e-04	4.835849e-03	2.455321e-03	3.674859e-06
144           	7.941339e-04	4.618912e-03	2.316259e-03	3.415497e-06
145           	7.639913e-04	4.342156e-03	2.177855e-03	3.187697e-06
146           	7.362041e-04	4.119356e-03	2.069289e-03	2.993340e-06
147           	7.223895e-04	3.914816e-03	1.983281e-03	2.803954e-06
148           	6.942239e-04	3.699536e-03	1.884668e-03	2.660665e-06
149           	6.679520e-04	3.513955e-03	1.799312e-03	2.548253e-06
150           	6.433853e-04	3.343100e-03	1.728159e-03	2.449429e-06
151           	6.211435e-04	3.185794e-03	1.666847e-03	2.362499e-06
152           	6.016549e-04	3.042217e-03	1.617775e-03	2.272214e-06
153           	5.869189e-04	2.912001e-03	1.574387e-03	2.179639e-06
154           	5.743097e-04	2.790848e-03	1.521353e-03	2.101557e-06
155           	5.559349e-04	2.662187e-03	1.459570e-03	2.031286e-06
156           	5.339773e-04	2.541703e-03	1.402609e-03	1.954276e-06
157           	5.124372e-04	2.442262e-03	1.360650e-03	1.875436e-06
158           	4.929532e-04	2.354366e-03	1.325717e-03	1.788327e-06
159           	4.764877e-04	2.264518e-03	1.292062e-03	1.695634e-06
160           	4.641347e-04	2.161751e-03	1.253414e-03	1.615220e-06
161           	4.535350e-04	2.048678e-03	1.203187e-03	1.551858e-06
162           	4.392431e-04	1.938803e-03	1.141417e-03	1.486580e-06
163           	4.212497e-04	1.838569e-03	1.083812e-03	1.426336e-06
164           	4.037777e-04	1.759900e-03	1.041481e-03	1.367169e-06
165           	3.875901e-04	1.693667e-03	1.007907e-03	1.315493e-06
166           	3.727184e-04	1.625273e-03	9.728518e-04	1.262573e-06
167           	3.597872e-04	1.543804e-03	9.311433e-04	1.221538e-06
168           	3.477277e-04	1.454327e-03	8.840147e-04	1.185017e-06
169           	3.349305e-04	1.378189e-03	8.351873e-04	1.151385e-06
170           	3.192031e-04	1.310137e-03	7.887155e-04	1.120311e-06
171           	3.042178e-04	1.252591e-03	7.561061e-04	1.092819e-06
172           	2.910901e-04	1.210940e-03	7.391608e-04	1.066231e-06
173           	2.795783e-04	1.171759e-03	7.273358e-04	1.041381e-06
174           	2.692757e-04	1.121817e-03	7.125400e-04	1.015880e-06
175           	2.572798e-04	1.044352e-03	6.710863e-04	1.018431e-06
176           	2.503044e-04	1.004166e-03	6.629175e-04	9.752768e-07
177           	2.430913e-04	9.726665e-04	6.473445e-04	9.514370e-07
178           	2.314502e-04	8.961535e-04	6.055983e-04	9.472454e-07
179           	2.208811e-04	8.717263e-04	5.964618e-04	9.128122e-07
180           	2.111957e-04	8.153974e-04	5.653488e-04	9.226669e-07
181           	2.044666e-04	8.071757e-04	5.746494e-04	8.806702e-07
182           	1.982287e-04	7.811592e-04	5.731880e-04	8.527761e-07
183           	1.898879e-04	7.165251e-04	5.337650e-04	8.619942e-07
184           	1.852929e-04	6.783141e-04	5.191679e-04	8.080522e-07
185           	1.771961e-04	6.243946e-04	4.801356e-04	8.289500e-07
186           	1.718172e-04	6.162708e-04	4.659288e-04	7.804413e-07
187           	1.643349e-04	5.726642e-04	4.346555e-04	7.932270e-07
188           	1.578834e-04	5.439437e-04	4.139540e-04	7.914976e-07
189           	1.539225e-04	5.455464e-04	4.326973e-04	7.402013e-07
190           	1.478941e-04	5.166252e-04	4.090524e-04	7.540134e-07
191           	1.422889e-04	4.923935e-04	3.893071e-04	7.468779e-07
192           	1.395057e-04	4.914673e-04	4.075947e-04	6.855909e-07
193           	1.336424e-04	4.666947e-04	3.814648e-04	7.087879e-07
194           	1.281718e-04	4.444917e-04	3.580778e-04	7.030274e-07
195           	1.269319e-04	4.449712e-04	3.636052e-04	6.372918e-07
196           	1.211107e-04	4.180348e-04	3.330134e-04	6.699132e-07
197           	1.162135e-04	3.991160e-04	3.107699e-04	6.617506e-07
198           	1.131101e-04	3.930656e-04	3.254509e-04	6.081517e-07
199           	1.088288e-04	3.764273e-04	3.039498e-04	6.383148e-07
200           	1.050815e-04	3.622259e-04	2.893058e-04	6.375659e-07
201           	1.028697e-04	3.564083e-04	3.086811e-04	5.856304e-07
202           	9.914744e-05	3.372138e-04	2.895985e-04	6.187571e-07
203           	9.545813e-05	3.147574e-04	2.711123e-04	6.175111e-07
204           	9.345391e-05	3.053667e-04	2.757816e-04	5.546358e-07
205           	8.933101e-05	2.893984e-04	2.502367e-04	5.938834e-07
206           	8.564545e-05	2.803081e-04	2.300948e-04	5.897736e-07
207           	8.514698e-05	2.868089e-04	2.359334e-04	5.331789e-07
208           	8.134478e-05	2.724488e-04	2.163661e-04	5.716066e-07
209           	7.803668e-05	2.611576e-04	2.069458e-04	5.828502e-07
210           	7.656054e-05	2.578150e-04	2.236365e-04	5.255403e-07
211           	7.340114e-05	2.424021e-04	2.076002e-04	5.645680e-07
212           	7.022389e-05	2.257569e-04	1.918625e-04	5.647421e-07
213           	6.755797e-05	2.151841e-04	1.839895e-04	5.802492e-07
214           	6.674692e-05	2.222464e-04	1.948205e-04	5.182647e-07
215           	6.417964e-05	2.101663e-04	1.784702e-04	5.557784e-07
216           	6.204764e-05	2.026348e-04	1.663752e-04	5.492253e-07
217           	6.045949e-05	2.033985e-04	1.636800e-04	5.576671e-07
218           	6.163716e-05	2.108956e-04	1.811746e-04	4.939590e-07
219           	5.836000e-05	1.983595e-04	1.664844e-04	5.356320e-07
220           	5.477062e-05	1.856918e-04	1.544024e-04	5.442364e-07
221           	5.392232e-05	1.907975e-04	1.595891e-04	4.799027e-07
222           	5.148863e-05	1.791229e-04	1.472975e-04	5.193236e-07
223           	4.919583e-05	1.685120e-04	1.375018e-04	5.214235e-07
224           	4.755628e-05	1.630987e-04	1.361638e-04	5.314205e-07
225           	4.649892e-05	1.587671e-04	1.369548e-04	5.402156e-07
226           	4.525545e-05	1.545464e-04	1.346436e-04	5.375149e-07
227           	4.389373e-05	1.518244e-04	1.323491e-04	5.289828e-07
228           	4.246050e-05	1.496701e-04	1.307143e-04	5.179983e-07
229           	4.093407e-05	1.469214e-04	1.284328e-04	5.054094e-07
230           	3.930893e-05	1.424528e-04	1.244270e-04	4.931766e-07
231           	3.781012e-05	1.368993e-04	1.200543e-04	4.879904e-07
232           	3.673357e-05	1.312095e-04	1.153048e-04	4.876339e-07
233           	3.557920e-05	1.259452e-04	1.087771e-04	4.806418e-07
234           	3.422313e-05	1.215881e-04	1.018805e-04	4.696236e-07
235           	3.288720e-05	1.178656e-04	9.690308e-05	4.601749e-07
236           	3.169230e-05	1.146327e-04	9.397735e-05	4.509678e-07
237           	3.060813e-05	1.120241e-04	9.302924e-05	4.431758e-07
238           	2.953014e-05	1.092520e-04	9.268288e-05	4.369014e-07
239           	2.846283e-05	1.059833e-04	9.212562e-05	4.329865e-07
240           	2.738204e-05	1.020898e-04	9.080752e-05	4.315182e-07
241           	2.636121e-05	9.809814e-05	8.887145e-05	4.332561e-07
242           	2.539712e-05	9.441004e-05	8.606837e-05	4.345381e-07
243           	2.447594e-05	9.125280e-05	8.291640e-05	4.349221e-07
244           	2.363103e-05	8.862750e-05	7.994450e-05	4.355369e-07
245           	2.286376e-05	8.673900e-05	7.731803e-05	4.379008e-07
246           	2.211176e-05	8.523169e-05	7.490378e-05	4.408037e-07
247           	2.132043e-05	8.380934e-05	7.255839e-05	4.441254e-07
248           	2.050073e-05	8.191367e-05	7.029297e-05	4.457788e-07
249           	1.969635e-05	7.966500e-05	6.820536e-05	4.484235e-07
250           	1.890550e-05	7.680585e-05	6.561904e-05	4.448861e-07
251           	1.815067e-05	7.385431e-05	6.299774e-05	4.377990e-07
252           	1.744654e-05	7.134986e-05	6.057681e-05	4.289082e-07
253           	1.678547e-05	6.896658e-05	5.818641e-05	4.204800e-07
254           	1.616848e-05	6.686082e-05	5.621419e-05	4.132961e-07
255           	1.559715e-05	6.500159e-05	5.446374e-05	4.081050e-07
256           	1.507345e-05	6.339066e-05	5.312345e-05	4.032946e-07
257           	1.458747e-05	6.192505e-05	5.194289e-05	4.016527e-07
258           	1.409457e-05	6.037708e-05	5.096432e-05	3.999992e-07
259           	1.358190e-05	5.875761e-05	4.991422e-05	3.992768e-07
260           	1.306777e-05	5.719462e-05	4.894099e-05	3.988175e-07
261           	1.259195e-05	5.577900e-05	4.817799e-05	4.004979e-07
262           	1.209996e-05	5.389621e-05	4.685202e-05	3.998562e-07
263           	1.161713e-05	5.201788e-05	4.541161e-05	3.986121e-07
264           	1.118639e-05	5.017922e-05	4.369339e-05	3.972805e-07
265           	1.082223e-05	4.852248e-05	4.207827e-05	3.970751e-07
266           	1.049318e-05	4.683945e-05	4.057971e-05	3.965979e-07
267           	1.017154e-05	4.515747e-05	3.880343e-05	3.951335e-07
268           	9.859997e-06	4.383426e-05	3.735296e-05	3.937753e-07
269           	9.618593e-06	4.298114e-05	3.652636e-05	3.946819e-07
270           	9.360260e-06	4.218031e-05	3.556093e-05	3.953893e-07
271           	9.093366e-06	4.133881e-05	3.466250e-05	3.941444e-07
272           	8.836961e-06	4.060802e-05	3.398763e-05	3.918833e-07
273           	8.606320e-06	3.983222e-05	3.314487e-05	3.904836e-07
274           	8.392064e-06	3.898863e-05	3.236423e-05	3.900636e-07
275           	8.190959e-06	3.798015e-05	3.148713e-05	3.888717e-07
276           	7.993330e-06	3.703621e-05	3.046831e-05	3.871684e-07
277           	7.834563e-06	3.639944e-05	2.965462e-05	3.876028e-07
278           	7.672701e-06	3.568371e-05	2.897687e-05	3.873907e-07
279           	7.504484e-06	3.481141e-05	2.807645e-05	3.871590e-07
280           	7.348158e-06	3.421965e-05	2.730024e-05	3.856257e-07
281           	7.245250e-06	3.375775e-05	2.677378e-05	3.852193e-07
282           	7.133184e-06	3.331255e-05	2.634046e-05	3.850341e-07
283           	7.007934e-06	3.269451e-05	2.568546e-05	3.844794e-07
284           	6.892812e-06	3.227927e-05	2.521100e-05	3.827492e-07
285           	6.816607e-06	3.182109e-05	2.479125e-05	3.822672e-07
286           	6.720914e-06	3.114719e-05	2.411621e-05	3.812434e-07
287           	6.642574e-06	3.051831e-05	2.349023e-05	3.798975e-07
288           	6.563040e-06	2.979535e-05	2.278527e-05	3.782256e-07
289           	6.524990e-06	2.923346e-05	2.223860e-05	3.787294e-07
290           	6.488033e-06	2.875749e-05	2.206005e-05	3.792559e-07
291           	6.423922e-06	2.810854e-05	2.144236e-05	3.790331e-07
292           	6.353233e-06	2.760217e-05	2.100306e-05	3.772470e-07
293           	6.323287e-06	2.738048e-05	2.082970e-05	3.769393e-07
294           	6.272677e-06	2.688038e-05	2.044480e-05	3.762414e-07
295           	6.220490e-06	2.643479e-05	2.009617e-05	3.761087e-07
296           	6.184203e-06	2.610811e-05	2.002936e-05	3.760111e-07
297           	6.156582e-06	2.569235e-05	1.961258e-05	3.768087e-07
298           	6.119773e-06	2.533726e-05	1.919391e-05	3.757798e-07
299           	6.079595e-06	2.499109e-05	1.875209e-05	3.750060e-07
300           	6.038124e-06	2.469182e-05	1.832870e-05	3.746223e-07
301           	6.022756e-06	2.454074e-05	1.802327e-05	3.753993e-07
302           	6.008174e-06	2.447254e-05	1.782642e-05	3.754638e-07
303           	5.974674e-06	2.397670e-05	1.741122e-05	3.747173e-07
304           	5.940258e-06	2.380967e-05	1.728439e-05	3.735030e-07
305           	5.926405e-06	2.368965e-05	1.714285e-05	3.733827e-07
306           	5.908326e-06	2.344541e-05	1.705744e-05	3.727193e-07
307           	5.867808e-06	2.312447e-05	1.684007e-05	3.722816e-07
308           	5.831372e-06	2.285798e-05	1.667126e-05	3.709957e-07
309           	5.811368e-06	2.275329e-05	1.648099e-05	3.710932e-07
310           	5.791278e-06	2.266862e-05	1.623657e-05	3.700268e-07
311           	5.767853e-06	2.266502e-05	1.604843e-05	3.700674e-07
312           	5.747453e-06	2.248574e-05	1.562059e-05	3.691024e-07
313           	5.755640e-06	2.243157e-05	1.537364e-05	3.685396e-07
314           	5.749238e-06	2.231222e-05	1.522980e-05	3.676431e-07
315           	5.740019e-06	2.203577e-05	1.514514e-05	3.681978e-07
316           	5.719892e-06	2.177388e-05	1.505410e-05	3.675867e-07
317           	5.719251e-06	2.168792e-05	1.507511e-05	3.674652e-07
318           	5.719281e-06	2.149923e-05	1.507559e-05	3.665684e-07
319           	5.703980e-06	2.149053e-05	1.502278e-05	3.669929e-07
320           	5.682990e-06	2.139035e-05	1.483668e-05	3.658587e-07
321           	5.690007e-06	2.147058e-05	1.478508e-05	3.651517e-07
322           	5.696431e-06	2.137879e-05	1.465986e-05	3.644696e-07
323           	5.692715e-06	2.116157e-05	1.448881e-05	3.646861e-07
324           	5.671784e-06	2.091890e-05	1.431369e-05	3.639143e-07
325           	5.688318e-06	2.097538e-05	1.435505e-05	3.642941e-07
326           	5.691209e-06	2.084486e-05	1.429309e-05	3.636633e-07
327           	5.693159e-06	2.077763e-05	1.427844e-05	3.638226e-07
328           	5.691190e-06	2.072784e-05	1.428589e-05	3.627390e-07
329           	5.716134e-06	2.075423e-05	1.429264e-05	3.635630e-07
330           	5.725092e-06	2.068407e-05	1.430967e-05	3.630044e-07
331           	5.720220e-06	2.061752e-05	1.425105e-05	3.632431e-07
332           	5.722011e-06	2.059613e-05	1.428709e-05	3.626021e-07
333           	5.725982e-06	2.059847e-05	1.426118e-05	3.624325e-07
334           	5.726351e-06	2.060578e-05	1.422612e-05	3.622171e-07
335           	5.713382e-06	2.051252e-05	1.409288e-05	3.621142e-07
336           	5.724050e-06	2.045399e-05	1.407582e-05	3.611255e-07
337           	5.764070e-06	2.046138e-05	1.406579e-05	3.618063e-07
338           	5.769774e-06	2.036587e-05	1.406741e-05	3.606997e-07
339           	5.769085e-06	2.025480e-05	1.407140e-05	3.606413e-07
340           	5.761300e-06	2.019298e-05	1.406804e-05	3.592525e-07
341           	5.778099e-06	2.030465e-05	1.409367e-05	3.591474e-07
342           	5.789972e-06	2.030574e-05	1.411193e-05	3.584394e-07
343           	5.781075e-06	2.031447e-05	1.401118e-05	3.581670e-07
344           	5.780277e-06	2.036465e-05	1.394360e-05	3.571502e-07
345           	5.795755e-06	2.047178e-05	1.395332e-05	3.569087e-07
346           	5.800755e-06	2.045247e-05	1.399091e-05	3.563388e-07
347           	5.798777e-06	2.035979e-05	1.397175e-05	3.564001e-07
348           	5.791006e-06	2.015034e-05	1.398790e-05	3.555797e-07
349           	5.807851e-06	2.009744e-05	1.403273e-05	3.563139e-07
350           	5.810119e-06	2.009757e-05	1.407921e-05	3.561510e-07
351           	5.805083e-06	2.008019e-05	1.401399e-05	3.558291e-07
352           	5.809217e-06	2.015097e-05	1.407121e-05	3.555459e-07
353           	5.834605e-06	2.028763e-05	1.416185e-05	3.563092e-07
354           	5.843257e-06	2.022180e-05	1.413511e-05	3.563823e-07
355           	5.835967e-06	2.015229e-05	1.401701e-05	3.559371e-07
356           	5.833018e-06	2.019088e-05	1.399412e-05	3.555412e-07
357           	5.859843e-06	2.017340e-05	1.400401e-05	3.561420e-07
358           	5.871759e-06	2.013136e-05	1.400130e-05	3.556313e-07
359           	5.866789e-06	2.008147e-05	1.392664e-05	3.554153e-07
360           	5.860224e-06	2.003824e-05	1.394957e-05	3.547123e-07
361           	5.879561e-06	2.015816e-05	1.400711e-05	3.549982e-07
362           	5.889215e-06	2.029611e-05	1.408172e-05	3.545206e-07
363           	5.887599e-06	2.018659e-05	1.409774e-05	3.540195e-07
364           	5.879574e-06	2.019861e-05	1.416801e-05	3.527268e-07
365           	5.891491e-06	2.030145e-05	1.427869e-05	3.534721e-07
366           	5.894150e-06	2.022535e-05	1.430357e-05	3.524596e-07
367           	5.883411e-06	2.010730e-05	1.430051e-05	3.523629e-07
368           	5.863982e-06	1.990386e-05	1.423770e-05	3.509215e-07
369           	5.852675e-06	1.976657e-05	1.416633e-05	3.511946e-07
370           	5.865373e-06	1.969192e-05	1.410545e-05	3.505042e-07
371           	5.879490e-06	1.960315e-05	1.402507e-05	3.503191e-07
372           	5.892564e-06	1.951881e-05	1.400356e-05	3.492272e-07
373           	5.907721e-06	1.949475e-05	1.405527e-05	3.494710e-07
374           	5.911609e-06	1.950776e-05	1.407244e-05	3.489986e-07
375           	5.898638e-06	1.944575e-05	1.401250e-05	3.488745e-07
376           	5.885014e-06	1.944170e-05	1.398792e-05	3.480990e-07
377           	5.888951e-06	1.949171e-05	1.404119e-05	3.492658e-07
378           	5.883870e-06	1.937908e-05	1.400711e-05	3.487348e-07
379           	5.870599e-06	1.929344e-05	1.394849e-05	3.492924e-07
380           	5.852365e-06	1.917748e-05	1.388681e-05	3.483467e-07
381           	5.853432e-06	1.907230e-05	1.384757e-05	3.484593e-07
382           	5.845972e-06	1.894432e-05	1.376294e-05	3.478507e-07
383           	5.832267e-06	1.876968e-05	1.362410e-05	3.475018e-07
384           	5.820676e-06	1.862260e-05	1.350129e-05	3.462930e-07
385           	5.833746e-06	1.863398e-05	1.347137e-05	3.466615e-07
386           	5.838734e-06	1.861719e-05	1.342081e-05	3.459775e-07
387           	5.839216e-06	1.857832e-05	1.336315e-05	3.456862e-07
388           	5.837949e-06	1.855200e-05	1.336591e-05	3.446906e-07
389           	5.857671e-06	1.862247e-05	1.340022e-05	3.450740e-07
390           	5.866897e-06	1.860315e-05	1.336422e-05	3.442980e-07
391           	5.857987e-06	1.859526e-05	1.327929e-05	3.443901e-07
392           	5.848096e-06	1.859907e-05	1.324244e-05	3.439090e-07
393           	5.865696e-06	1.860214e-05	1.334235e-05	3.443113e-07
394           	5.862549e-06	1.856959e-05	1.332787e-05	3.443032e-07
395           	5.849664e-06	1.853614e-05	1.333500e-05	3.444643e-07
396           	5.829957e-06	1.845132e-05	1.335160e-05	3.433634e-07
397           	5.843104e-06	1.845850e-05	1.346761e-05	3.444205e-07
398           	5.819629e-06	1.831966e-05	1.352442e-05	3.444705e-07
399           	5.802248e-06	1.817133e-05	1.347319e-05	3.445259e-07
400           	5.801402e-06	1.814694e-05	1.345445e-05	3.439249e-07
401           	5.828525e-06	1.821600e-05	1.345939e-05	3.445270e-07
402           	5.830519e-06	1.815986e-05	1.341123e-05	3.439179e-07
403           	5.810432e-06	1.807360e-05	1.329271e-05	3.438776e-07
404           	5.802124e-06	1.801705e-05	1.319258e-05	3.425245e-07
405           	5.809845e-06	1.803425e-05	1.313806e-05	3.425675e-07
406           	5.810935e-06	1.806223e-05	1.309539e-05	3.421759e-07
407           	5.798664e-06	1.804301e-05	1.301309e-05	3.420113e-07
408           	5.783851e-06	1.797145e-05	1.300342e-05	3.410400e-07
409           	5.791251e-06	1.797876e-05	1.304399e-05	3.418501e-07
410           	5.797406e-06	1.792225e-05	1.302403e-05	3.411890e-07
411           	5.780263e-06	1.781755e-05	1.297131e-05	3.408404e-07
412           	5.770041e-06	1.780728e-05	1.304768e-05	3.402415e-07
413           	5.770377e-06	1.779660e-05	1.308388e-05	3.410244e-07
414           	5.766031e-06	1.776932e-05	1.305483e-05	3.405711e-07
415           	5.744153e-06	1.774113e-05	1.293497e-05	3.405453e-07
416           	5.726467e-06	1.772648e-05	1.285646e-05	3.396788e-07
417           	5.728706e-06	1.775119e-05	1.281951e-05	3.401005e-07
418           	5.720306e-06	1.768059e-05	1.278753e-05	3.395305e-07
419           	5.701174e-06	1.759784e-05	1.273554e-05	3.394991e-07
420           	5.681483e-06	1.754030e-05	1.266130e-05	3.391342e-07
421           	5.684355e-06	1.756526e-05	1.268325e-05	3.399928e-07
422           	5.679976e-06	1.754935e-05	1.268118e-05	3.398753e-07
423           	5.671574e-06	1.748378e-05	1.269370e-05	3.398822e-07
424           	5.658031e-06	1.747069e-05	1.267433e-05	3.391515e-07
425           	5.669857e-06	1.756778e-05	1.273771e-05	3.396350e-07
426           	5.655051e-06	1.756065e-05	1.274666e-05	3.392566e-07
427           	5.637388e-06	1.752721e-05	1.268480e-05	3.393368e-07
428           	5.623607e-06	1.748546e-05	1.270820e-05	3.382201e-07
429           	5.619989e-06	1.749747e-05	1.271115e-05	3.386529e-07
430           	5.618902e-06	1.745403e-05	1.266501e-05	3.380211e-07
431           	5.608038e-06	1.738650e-05	1.256850e-05	3.375873e-07
432           	5.595347e-06	1.732209e-05	1.258139e-05	3.371519e-07
433           	5.610410e-06	1.726816e-05	1.260113e-05	3.375535e-07
434           	5.616252e-06	1.721731e-05	1.256961e-05	3.372055e-07
435           	5.617685e-06	1.712913e-05	1.245790e-05	3.369981e-07
436           	5.594349e-06	1.709201e-05	1.240927e-05	3.361335e-07
437           	5.600332e-06	1.716735e-05	1.244352e-05	3.368874e-07
438           	5.602795e-06	1.715540e-05	1.246434e-05	3.366172e-07
439           	5.592164e-06	1.705765e-05	1.236158e-05	3.366623e-07
440           	5.566457e-06	1.698715e-05	1.231860e-05	3.354683e-07
441           	5.565498e-06	1.696575e-05	1.230989e-05	3.362282e-07
442           	5.559350e-06	1.687034e-05	1.223923e-05	3.360936e-07
443           	5.542695e-06	1.670572e-05	1.218939e-05	3.360136e-07
444           	5.525399e-06	1.658909e-05	1.217400e-05	3.352401e-07
445           	5.528828e-06	1.657039e-05	1.214651e-05	3.362259e-07
446           	5.525527e-06	1.655561e-05	1.213236e-05	3.356034e-07