# Probe 0 (-1 0 0)
# Probe 1 (1 0 0)
# Probe 2 (1.7 0 0)
# Time        0             1             2            
0             0             0             0            
1             0.982152      -0.375242     -1.24959     
2             1967.12       -373.127      -1965.41     
3             1808.84       -428.207      -2090.3      
4             51.2877       -210.372      -769.827     
5             -1514.48      -12.9301      292.514      
6             -1306.52      38.092        482.226      
7             40.5106       -60.4939      -142.913     
8             894.89        -169.986      -768.181     
9             695.963       -207.42       -947.85      
10            -55.4282      -165.377      -665.147     
11            -536.64       -100.202      -290.451     
12            -400.275      -57.4713      -96.2814     
13            41.8602       -52.0417      -148.339     
14            299.378       -78.1654      -344.42      
15            229.327       -104.654      -487.981     
16            -3.79349      -116.623      -499.192     
17            -153.256      -105.265      -392.221     
18            -109.219      -83.0861      -278.089     
19            12.5814       -62.1466      -220.422     
20            103.468       -54.4458      -243.303     
21            92.3668       -58.1379      -297.869     
22            37.8211       -64.8246      -334.173     
23            -16.5998      -63.8174      -325.883     
24            -28.7128      -45.3668      -261.947     
25            -5.94911      -17.9769      -195.326     
26            23.6819       4.79915       -163.057     
27            42.3375       18.3343       -155.481     
28            39.9619       21.3886       -164.187     
29            27.2467       23.815        -160.152     
30            9.06372       29.4292       -138.127     
31            2.62026       39.7475       -97.2618     
32            10.3139       48.0443       -64.0111     
33            20.234        53.1992       -36.6458     
34            21.7443       52.6826       -21.5838     
35            21.4294       52.4171       -9.09926     
36            19.3667       51.8189       9.46948      
37            12.7423       52.8717       42.5669      
38            10.9342       50.8377       74.6847      
39            13.0158       42.2702       89.9346      
40            14.4178       35.139        99.1291      
41            15.0412       30.8754       105.187      
42            15.0205       27.9525       107.471      
43            14.5009       22.639        107.225      
44            13.587        13.4096       101.575      
45            11.4838       1.91894       91.5295      
46            9.70062       -6.46548      82.5221      
47            9.25898       -8.25224      77.3363      
48            9.69904       -2.66423      74.4955      
49            10.8696       9.19812       74.9542      
50            12.2109       20.4039       80.1561      
51            12.7635       27.3181       89.1436      
52            11.6751       29.3606       100.413      
53            9.91165       26.3248       107.841      
54            8.95175       21.0495       109.804      
55            8.53179       18.4178       110.227      
56            8.60334       17.7882       110.531      
57            8.95352       17.1362       110.803      
58            9.35129       14.6404       108.497      
59            9.56907       9.47627       101.807      
60            9.62147       3.68127       89.0909      
61            9.42914       1.29789       77.0293      
62            9.25417       2.46359       72.4949      
63            9.12591       6.02305       71.5961      
64            8.99765       10.134        72.2024      
65            8.77516       13.8247       76.3438      
66            8.66046       15.1069       84.7747      
67            8.63998       14.0154       89.3173      
68            8.66981       12.1427       90.6537      
69            8.73676       9.9738        89.8918      
70            8.81603       7.99535       88.608       
71            8.88416       6.67959       88.4647      
72            8.91457       5.73372       89.0313      
73            8.8998        5.39567       89.5179      
74            8.86131       5.8825        90.3495      
75            8.81659       7.22195       89.8561      
76            8.74476       8.60607       86.0135      
77            8.62546       8.75758       79.4704      
78            8.57597       7.22764       72.8896      
79            8.57441       5.83698       70.0885      
80            8.59655       4.72691       69.484       
81            8.78654       4.60933       72.673       
82            8.79208       6.91436       80.5358      
83            8.74474       10.1249       87.6751      
84            8.66599       12.4066       91.2492      
85            8.60633       13.5036       92.4329      
86            8.5782        13.8704       91.8954      
87            8.59539       13.5774       89.1426      
88            8.67289       12.4864       82.2706      
89            8.72196       11.2606       75.7174      
90            8.72635       10.5506       72.244       
91            8.70559       10.0912       70.3198      
92            8.68684       9.73409       70.1183      
93            8.68766       9.74313       70.6698      
94            8.71193       10.415        70.9486      
95            8.74987       11.7071       70.4366      
96            8.79066       13.2329       69.1463      
97            8.84341       14.4623       66.6903      
98            8.89465       14.6926       62.8333      
99            8.89219       14.3507       59.9412      
100           8.88866       14.2061       58.7194      
101           8.88919       14.4053       58.4083      
102           8.90267       14.7741       58.8294      
103           8.92766       14.9293       59.6325      
104           8.95657       14.6445       60.5345      
105           8.98209       13.9707       61.4269      
106           9.00006       13.1594       62.2484      
107           9.02185       12.4736       62.7384      
108           9.06011       12.0031       61.931       
109           9.04698       11.6218       60.4402      
110           9.0365        11.4152       59.4992      
111           9.02754       11.4216       59.2643      
112           9.01859       11.6592       59.6377      
113           9.01835       12.1481       60.6592      
114           9.02369       12.7725       61.8956      
115           9.02024       13.3833       62.8815      
116           9.01484       13.9012       63.8469      
117           9.00655       14.2734       64.861       
118           8.99337       14.4954       65.9027      
119           8.97589       14.5843       66.8969      
120           8.96324       14.5418       67.8863      
121           8.94891       14.4333       68.7582      
122           8.93069       14.3035       69.4698      
123           8.91036       14.1579       70.0233      
124           8.88973       13.9839       70.3931      
125           8.87433       13.7714       70.4977      
126           8.86398       13.5336       70.343       
127           8.86004       13.319        70.1132      
128           8.85446       13.1863       70.0185      
129           8.84645       13.1773       70.2004      
130           8.83576       13.2997       70.6734      
131           8.82458       13.5131       71.2982      
132           8.81517       13.7534       71.8922      
133           8.80846       13.9714       72.3531      
134           8.80389       14.151        72.6847      
135           8.80028       14.304        72.9583      
136           8.79693       14.4528       73.2491      
137           8.79394       14.6087       73.5867      
138           8.79181       14.7603       73.947       
139           8.79312       14.8812       74.2712      
140           8.79667       14.9489       74.5119      
141           8.79979       14.9573       74.6532      
142           8.80383       14.917        74.7028      
143           8.8056        14.8481       74.683       
144           8.80621       14.7689       74.6143      
145           8.80787       14.6885       74.5047      
146           8.81069       14.6076       74.3561      
147           8.81507       14.5253       74.1801      
148           8.82081       14.4456       74.0237      
149           8.82514       14.3882       74.0037      
150           8.82774       14.3945       74.1974      
151           8.82902       14.5783       75.1322      
152           8.8289        14.6808       75.3007      
153           8.8295        14.7513       75.2173      
154           8.83187       14.6872       74.7918      
155           8.83563       14.5682       74.3883      
156           8.8356        14.5332       74.2274      
157           8.83602       14.6501       74.9385      
158           8.83199       14.7701       75.191       
159           8.82932       14.9037       75.3925      
160           8.82848       14.9789       75.4206      
161           8.83133       14.9577       75.309       
162           8.83464       14.8876       75.2444      
163           8.83687       14.8509       75.3162      
164           8.83683       14.8708       75.4859      
165           8.83667       14.9302       75.6785      
166           8.83797       14.9893       75.7929      
167           8.84173       15.0027       75.772       
168           8.84669       14.9577       75.651       
169           8.85019       14.8847       75.5357      
170           8.85211       14.8309       75.5237      
171           8.85337       14.8264       75.6338      
172           8.85683       14.8608       75.7777      
173           8.86187       14.9005       75.8765      
174           8.86877       14.9236       75.9006      
175           8.87221       14.9187       75.8636      
176           8.87761       14.8923       75.7571      
177           8.88624       14.8462       75.5974      
178           8.89702       14.8022       75.4805      
179           8.90878       14.7897       75.5078      
180           8.91708       14.8272       75.6974      
181           8.92488       14.8945       75.9193      
182           8.92928       14.952        76.0521      
183           8.93443       14.9999       76.1163      
184           8.94203       15.0364       76.1101      
185           8.9524        15.0456       76.02        
186           8.96443       15.0191       75.8854      
187           8.97559       14.9789       75.777       
188           8.98623       14.9507       75.7262      
189           8.99752       14.9498       75.7351      
190           9.01009       14.9787       75.788       
191           9.02317       15.0258       75.8542      
192           9.03502       15.0683       75.8979      
193           9.04434       15.0916       75.9038      
194           9.05259       15.097        75.8796      
195           9.0617        15.0925       75.8397      
196           9.07226       15.0864       75.7979      
197           9.08464       15.0846       75.7658      
198           9.09822       15.0891       75.7505      
199           9.11206       15.0986       75.7519      
200           9.12558       15.11         75.7643      
201           9.1385        15.1207       75.7813      
202           9.15057       15.129        75.7978      
203           9.16063       15.1337       75.8117      
204           9.1705        15.1353       75.823       
205           9.17984       15.1353       75.8323      
206           9.18927       15.1353       75.8395      
207           9.19937       15.136        75.8438      
208           9.21022       15.1373       75.8441      
209           9.2215        15.1386       75.8405      
210           9.23273       15.1393       75.8346      
211           9.24359       15.1395       75.8293      
212           9.25395       15.1401       75.827       
213           9.26383       15.1421       75.829       
214           9.27327       15.1462       75.8348      
215           9.28226       15.1522       75.8426      
216           9.29074       15.1593       75.8502      
217           9.29875       15.1664       75.8556      
218           9.30644       15.1726       75.8579      
219           9.31399       15.1776       75.8574      
220           9.32154       15.1814       75.8551      
221           9.32913       15.1845       75.8526      
222           9.33673       15.1873       75.8509      
223           9.34427       15.1904       75.8506      
224           9.35166       15.1939       75.8515      
225           9.35889       15.1978       75.8529      
226           9.36582       15.202        75.854       
227           9.37237       15.2062       75.8544      
228           9.37444       15.2074       75.8534      
229           9.38196       15.2133       75.8497      
230           9.38911       15.2183       75.8449      
231           9.39095       15.2191       75.8428      
232           9.39826       15.2225       75.837       
233           9.40032       15.2232       75.8345      
234           9.40773       15.2271       75.828       
235           9.40979       15.2285       75.8252      
236           9.41684       15.2349       75.8192      
237           9.41866       15.2369       75.8169      
238           9.42089       15.2398       75.8143      
239           9.42832       15.2503       75.8096      
240           9.43022       15.2526       75.8077      
241           9.43216       15.2549       75.8059      
242           9.43899       15.2634       75.8031      
243           9.44052       15.2653       75.8016      
244           9.44216       15.2677       75.8         
245           9.44807       15.2775       75.7961      
246           9.44942       15.2803       75.7938      
247           9.45087       15.284        75.7907      
248           9.45623       15.2961       75.7828      
249           9.45745       15.2988       75.7796      
250           9.45874       15.3013       75.7761      
251           9.46319       15.31         75.7684      
252           9.46413       15.312        75.7657      
253           9.46505       15.3145       75.7631      
254           9.46624       15.3186       75.7603      
255           9.46996       15.3323       75.7538      
256           9.47078       15.3357       75.7511      
257           9.47153       15.339        75.7482      
258           9.47244       15.3429       75.745       
259           9.47347       15.3478       75.741       
260           9.47642       15.3614       75.7319      
261           9.47698       15.3639       75.7288      
262           9.47747       15.3659       75.7264      
263           9.47801       15.3683       75.7242      
264           9.47873       15.372        75.722       
265           9.47952       15.3771       75.7197      
266           9.48207       15.3931       75.7161      
267           9.48245       15.3963       75.7151      
268           9.4828        15.3989       75.7146      
269           9.48322       15.4017       75.7142      
270           9.48377       15.4052       75.7137      
271           9.48436       15.4097       75.7128      
272           9.485         15.4155       75.7117      
273           9.48558       15.4225       75.7107      
274           9.48613       15.4302       75.7102      
275           9.48655       15.4375       75.7104      
276           9.48696       15.4437       75.7108      
277           9.48726       15.4487       75.7112      
278           9.48759       15.4524       75.7112      
279           9.48788       15.4554       75.7109      
280           9.48822       15.4581       75.7104      
281           9.48853       15.461        75.7101      
282           9.4889        15.4646       75.7104      
283           9.48921       15.4691       75.7118      
284           9.48952       15.4746       75.7143      
285           9.48971       15.4806       75.7176      
286           9.48989       15.4868       75.7214      
287           9.48999       15.4924       75.7252      
288           9.49015       15.4972       75.7286      
289           9.49028       15.501        75.7315      
290           9.49045       15.504        75.734       
291           9.49058       15.5068       75.7363      
292           9.49075       15.5098       75.7388      
293           9.49088       15.5134       75.7415      
294           9.49105       15.5176       75.7447      
295           9.49115       15.5223       75.748       
296           9.49128       15.5273       75.7513      
297           9.49132       15.532        75.7544      
298           9.49139       15.5363       75.7571      
299           9.49142       15.54         75.7593      
300           9.49147       15.5431       75.7612      
301           9.49147       15.546        75.7629      
302           9.4915        15.5489       75.7646      
303           9.4915        15.5519       75.7666      
304           9.49155       15.5553       75.7688      
305           9.49156       15.5587       75.7711      
306           9.4916        15.5623       75.7736      
307           9.49159       15.5657       75.7761      
308           9.4916        15.569        75.7784      
309           9.49155       15.572        75.7806      
310           9.4915        15.5749       75.7826      
311           9.49138       15.5777       75.7844      
312           9.49129       15.5804       75.7861      
313           9.49118       15.583        75.7879      
314           9.49114       15.5856       75.7898      
315           9.4911        15.588        75.7918      
316           9.49112       15.5904       75.794       
317           9.49113       15.5926       75.7963      
318           9.49118       15.5948       75.7988      
319           9.49116       15.5969       75.8014      
320           9.49114       15.5992       75.804       
321           9.49103       15.6015       75.8066      
322           9.4909        15.6039       75.8091      
323           9.49072       15.6063       75.8116      
324           9.49058       15.6086       75.8139      
325           9.49044       15.6108       75.8162      
326           9.4904        15.6129       75.8183      
327           9.49037       15.6149       75.8203      
328           9.4904        15.6167       75.8222      
329           9.49041       15.6186       75.824       
330           9.49041       15.6204       75.8257      
331           9.49031       15.6222       75.8273      
332           9.49019       15.6241       75.8288      
333           9.48997       15.6259       75.8303      
334           9.48975       15.6277       75.8319      
335           9.48955       15.6293       75.8334      
336           9.48943       15.6308       75.8349      
337           9.48936       15.6322       75.8364      
338           9.48938       15.6336       75.8379      
339           9.48939       15.635        75.8393      
340           9.4894        15.6363       75.8405      
341           9.48938       15.6378       75.8417      
342           9.48932       15.6393       75.8428      
343           9.48915       15.6407       75.8437      
344           9.48896       15.6422       75.8446      
345           9.48871       15.6436       75.8455      
346           9.48848       15.6449       75.8465      
347           9.48827       15.646        75.8474      
348           9.48814       15.6471       75.8484      
349           9.48806       15.6481       75.8495      
350           9.48806       15.6491       75.8505      
351           9.48808       15.6501       75.8514      
352           9.4881        15.6512       75.8523      
353           9.48809       15.6523       75.8531      
354           9.48806       15.6534       75.8538      
355           9.48795       15.6545       75.8543      
356           9.48784       15.6557       75.8548      
357           9.48771       15.6567       75.8551      
358           9.48761       15.6577       75.8554      
359           9.48754       15.6586       75.8556      
360           9.48755       15.6594       75.8558      
361           9.48756       15.6601       75.856       
362           9.48762       15.6608       75.8563      
363           9.48764       15.6615       75.8566      
364           9.48764       15.6621       75.8569      
365           9.4876        15.6628       75.8572      
366           9.48754       15.6635       75.8576      
367           9.48742       15.6642       75.858       
368           9.48732       15.665        75.8583      
369           9.48723       15.6658       75.8586      
370           9.48713       15.6666       75.8589      
371           9.48706       15.6674       75.8591      
372           9.48702       15.6681       75.8592      
373           9.48695       15.6688       75.8593      
374           9.48694       15.6694       75.8592      
375           9.48692       15.6701       75.8592      
376           9.48686       15.6707       75.8591      
377           9.48681       15.6713       75.859       
378           9.48675       15.6719       75.8589      
379           9.48665       15.6724       75.8588      
380           9.48658       15.673        75.8587      
381           9.48653       15.6735       75.8585      
382           9.48648       15.674        75.8583      
383           9.48647       15.6744       75.8581      
384           9.48648       15.6748       75.8578      
385           9.48646       15.6751       75.8575      
386           9.48647       15.6754       75.8571      
387           9.48648       15.6758       75.8568      
388           9.48645       15.6761       75.8565      
389           9.48644       15.6765       75.8563      
390           9.4864        15.6769       75.8561      
391           9.48633       15.6773       75.856       
392           9.48627       15.6777       75.8558      
393           9.48624       15.6782       75.8557      
394           9.48619       15.6786       75.8555      
395           9.48618       15.679        75.8553      
396           9.48617       15.6793       75.855       
397           9.48615       15.6797       75.8546      
398           9.48618       15.6801       75.8542      
399           9.4862        15.6804       75.8537      
400           9.48617       15.6807       75.8532      
401           9.48618       15.681        75.8527      
402           9.48618       15.6813       75.8521      
403           9.48611       15.6816       75.8516      
404           9.48602       15.6819       75.8511      
405           9.48595       15.6822       75.8506      
406           9.48586       15.6825       75.85        
407           9.4858        15.6828       75.8494      
408           9.48573       15.683        75.8488      
409           9.48566       15.6833       75.8481      
410           9.48564       15.6836       75.8474      
411           9.48562       15.6839       75.8467      
412           9.48555       15.6841       75.846       
413           9.4855        15.6844       75.8453      
414           9.48548       15.6847       75.8446      
415           9.4854        15.685        75.8441      
416           9.48531       15.6853       75.8436      
417           9.48523       15.6856       75.8431      
418           9.48515       15.6858       75.8426      
419           9.48509       15.6861       75.8421      
420           9.48501       15.6864       75.8416      
421           9.48493       15.6867       75.841       
422           9.48489       15.687        75.8404      
423           9.48485       15.6872       75.8397      
424           9.48474       15.6875       75.8389      
425           9.48466       15.6878       75.8381      
426           9.4846        15.6881       75.8373      
427           9.48452       15.6883       75.8366      
428           9.48442       15.6886       75.8358      
429           9.48434       15.6889       75.835       
430           9.48426       15.6891       75.8343      
431           9.4842        15.6893       75.8336      
432           9.48413       15.6896       75.8328      
433           9.48403       15.6898       75.8321      
434           9.48397       15.6901       75.8313      
435           9.48391       15.6904       75.8305      
436           9.4838        15.6908       75.8297      
437           9.48367       15.6911       75.8288      
438           9.48353       15.6915       75.8279      
439           9.48339       15.6919       75.8271      
440           9.48327       15.6922       75.8262      
441           9.4832        15.6926       75.8254      
442           9.4831        15.6929       75.8246      
443           9.48295       15.6932       75.8237      
444           9.4828        15.6935       75.8229      
445           9.48268       15.6938       75.822       
446           9.48255       15.6941       75.8211      
447           9.48238       15.6944       75.8202      
448           9.48217       15.6948       75.8193      
449           9.482         15.6952       75.8183      
450           9.48188       15.6956       75.8173      
451           9.48174       15.6959       75.8162      
452           9.48161       15.6963       75.8152      
453           9.48151       15.6966       75.8142      
454           9.48126       15.6969       75.8131      
455           9.48097       15.6972       75.8121      
456           9.48068       15.6975       75.8111      
457           9.4804        15.6978       75.81        
458           9.48025       15.6981       75.809       
459           9.48003       15.6984       75.808       
460           9.47977       15.6988       75.807       
461           9.47951       15.6991       75.8059      
462           9.47931       15.6995       75.8049      
463           9.47917       15.6999       75.8038      
464           9.47908       15.7002       75.8027      
465           9.47906       15.7005       75.8017      
466           9.47908       15.7009       75.8006      
467           9.47907       15.7012       75.7995      
468           9.47908       15.7015       75.7985      
469           9.4791        15.7018       75.7974      
470           9.47907       15.7021       75.7963      
471           9.47899       15.7024       75.7952      
472           9.47888       15.7027       75.7941      
473           9.47878       15.703        75.793       
474           9.47869       15.7033       75.7919      
475           9.47856       15.7037       75.7907      
476           9.4784        15.704        75.7895      
477           9.47826       15.7042       75.7883      
478           9.47815       15.7045       75.7871      
479           9.47803       15.7047       75.7858      
480           9.47789       15.705        75.7845      
481           9.47776       15.7052       75.7833      
482           9.47762       15.7054       75.782       
483           9.47747       15.7056       75.7806      
484           9.47729       15.7058       75.7793      
485           9.47709       15.706        75.7779      
486           9.4769        15.7062       75.7766      
487           9.47674       15.7064       75.7751      
488           9.47658       15.7066       75.7737      
489           9.47641       15.7067       75.7722      
490           9.47626       15.7069       75.7708      
491           9.4761        15.707        75.7693      
492           9.47599       15.7072       75.7678      
493           9.47587       15.7074       75.7662      
494           9.47572       15.7076       75.7647      
495           9.47555       15.7079       75.7631      
496           9.47537       15.7081       75.7615      
497           9.47518       15.7084       75.7599      
498           9.47499       15.7088       75.7583      
499           9.47479       15.7091       75.7566      
500           9.47458       15.7095       75.755       
