# Probe 0 (-1 0 0)
# Probe 1 (1 0 0)
# Probe 2 (1.7 0 0)
# Time        0             1             2            
0             (0 0 0)       (0 0 0)       (0 0 0)      
1             (7.36133 0.0428001 0.0914319) (2.61662 -0.0161939 0.0488838) (4.94882 -0.0212601 0.0357223)
2             (13.86 0.034226 0.0409646) (5.51574 -0.0315763 0.0692447) (9.91126 -0.0317545 0.0588784)
3             (29.0899 0.0158928 0.0118919) (11.7446 -0.0697828 0.153823) (20.6331 -0.0637896 0.179094)
4             (40.2632 0.0261627 0.141254) (16.9562 -0.0998236 0.277596) (29.3972 -0.0779028 0.285881)
5             (38.0533 0.0364632 0.253438) (17.5808 -0.102951 0.332071) (29.4743 -0.071099 0.278815)
6             (29.8544 0.0420944 0.252065) (15.7738 -0.0981645 0.320662) (25.1957 -0.0730482 0.169048)
7             (23.8339 0.0403197 0.155969) (14.0698 -0.0985682 0.275973) (21.2699 -0.0868837 0.03154)
8             (25.285 0.0355175 0.0638714) (13.9929 -0.106025 0.247392) (21.4163 -0.0995549 -0.0147263)
9             (30.3187 0.030689 0.0300027) (15.1698 -0.113832 0.248096) (24.4875 -0.102602 0.0325596)
10            (34.0639 0.0215445 0.0343968) (16.3211 -0.115778 0.256548) (27.5173 -0.0971376 0.0994279)
11            (34.3017 0.00842491 0.0487484) (16.6153 -0.110301 0.243123) (28.7068 -0.0871973 0.125124)
12            (32.2567 -0.00364782 0.0511313) (16.142 -0.0992764 0.200872) (28.2848 -0.08048 0.116012)
13            (30.4942 -0.00993911 0.048779) (15.4879 -0.0848081 0.142267) (27.447 -0.0833943 0.103581)
14            (30.4524 -0.0128544 0.0486213) (15.2349 -0.0688963 0.0886541) (27.2521 -0.0957779 0.121577)
15            (31.7005 -0.0186006 0.0512579) (15.5975 -0.0539701 0.0528362) (27.9404 -0.111939 0.171453)
16            (32.8839 -0.0307808 0.0551454) (16.3619 -0.0408441 0.0329399) (28.9554 -0.126056 0.228285)
17            (33.0893 -0.0464848 0.0568036) (17.2116 -0.0285904 0.020426) (29.5931 -0.136359 0.26262)
18            (32.4727 -0.0587759 0.0556154) (17.9654 -0.0161792 0.00745974) (29.5221 -0.143273 0.266365)
19            (31.767 -0.0643938 0.0504956) (18.6468 -0.0042589 -0.00779385) (28.931 -0.148344 0.252565)
20            (31.484 -0.0657232 0.0434122) (19.3675 0.00548093 -0.023086) (28.2452 -0.152572 0.240858)
21            (31.657 -0.0669253 0.0364841) (20.2175 0.0115281 -0.0343599) (27.8286 -0.155208 0.241204)
22            (31.9282 -0.0698157 0.0330778) (21.1875 0.0135668 -0.0396964) (27.7373 -0.154762 0.246085)
23            (32.0052 -0.0735513 0.0282222) (22.1978 0.0124522 -0.0393219) (27.7984 -0.149853 0.239812)
24            (31.8105 -0.0754382 0.0212975) (23.139 0.00960906 -0.0358862) (27.7871 -0.139743 0.217508)
25            (31.502 -0.0737754 0.0164193) (23.9383 0.00645861 -0.0323052) (27.6064 -0.125338 0.188007)
26            (31.2426 -0.0697555 0.0143844) (24.6066 0.00360099 -0.0287132) (27.3827 -0.109228 0.165696)
27            (31.1281 -0.0650555 0.0156344) (25.1916 0.00145924 -0.0224803) (27.2872 -0.0928689 0.156937)
28            (31.135 -0.0610164 0.0163127) (25.7351 0.000399389 -0.0137129) (27.3879 -0.07754 0.158236)
29            (31.1641 -0.0579359 0.0140814) (26.2545 0.0006111 -0.0042444) (27.6531 -0.0635698 0.161079)
30            (31.1341 -0.0552761 0.0110478) (26.7404 0.0023938 0.00352252) (27.9751 -0.0512017 0.158038)
31            (31.0193 -0.0522857 0.0104377) (27.1924 0.00581815 0.00699803) (28.2477 -0.0401739 0.148481)
32            (30.8876 -0.0484544 0.012084) (27.6098 0.0103149 0.00552865) (28.4314 -0.0309033 0.136038)
33            (30.807 -0.0438533 0.0128495) (27.9951 0.0148018 0.00118968) (28.5584 -0.0239982 0.125134)
34            (30.7746 -0.039055 0.0113289) (28.3503 0.0184935 -0.00411391) (28.6506 -0.0196455 0.116696)
35            (30.7457 -0.034839 0.00816043) (28.6997 0.0210995 -0.0106629) (28.719 -0.0178937 0.109069)
36            (30.7077 -0.0313364 0.0044474) (29.0614 0.022655 -0.0196347) (28.7564 -0.0182363 0.101723)
37            (30.6505 -0.0280985 0.0015446) (29.4408 0.0233327 -0.0314889) (28.7395 -0.019287 0.0946762)
38            (30.5705 -0.0246257 0.000590736) (29.8197 0.0229824 -0.0455554) (28.6424 -0.020108 0.0887499)
39            (30.4965 -0.0207386 0.00037703) (30.1762 0.0210739 -0.0583797) (28.4597 -0.0203797 0.0827298)
40            (30.4453 -0.0165299 -0.000403208) (30.4856 0.017066 -0.0660765) (28.2234 -0.019161 0.0750061)
41            (30.4125 -0.0123135 -0.00201885) (30.721 0.0109794 -0.0674533) (27.9701 -0.0162636 0.0656376)
42            (30.3935 -0.00839317 -0.00390785) (30.8999 0.0034744 -0.0635179) (27.713 -0.0119017 0.0544916)
43            (30.3859 -0.00495464 -0.00539811) (31.0665 -0.00454402 -0.0566922) (27.4787 -0.00608297 0.0410401)
44            (30.3823 -0.00210478 -0.00621131) (31.2565 -0.0123051 -0.0508293) (27.2377 0.000591578 0.0266301)
45            (30.3726 9.99855e-05 -0.00692836) (31.4707 -0.0195372 -0.0479314) (27.0511 0.0080841 0.013937)
46            (30.3484 0.00182922 -0.00808994) (31.6548 -0.0267771 -0.0460178) (26.9603 0.0167164 0.00292424)
47            (30.3145 0.00332879 -0.00899971) (31.7392 -0.0345685 -0.0405267) (26.9681 0.0258557 -0.00641242)
48            (30.2793 0.00452641 -0.0096322) (31.6959 -0.0428738 -0.0287387) (27.0527 0.034256 -0.0173933)
49            (30.2493 0.0053851 -0.0102417) (31.5646 -0.0502032 -0.0149235) (27.185 0.0404647 -0.0327814)
50            (30.2306 0.00569723 -0.0109861) (31.4183 -0.0543974 -0.00527389) (27.3436 0.0452825 -0.0479741)
51            (30.2279 0.00527242 -0.0115313) (31.3083 -0.0556525 -0.00756232) (27.4956 0.0479539 -0.0648477)
52            (30.2287 0.0041591 -0.0117192) (31.254 -0.0544151 -0.0233613) (27.681 0.0481817 -0.0859636)
53            (30.2266 0.0024433 -0.0115003) (31.2361 -0.051097 -0.0444726) (27.9097 0.0458585 -0.106608)
54            (30.2205 0.000427893 -0.0108554) (31.2192 -0.0464682 -0.0633623) (28.1575 0.0409595 -0.120976)
55            (30.2117 -0.0015963 -0.00955972) (31.1794 -0.0418556 -0.0743552) (28.3784 0.0342522 -0.128928)
56            (30.2 -0.00366747 -0.00820823) (31.1085 -0.0386165 -0.0726516) (28.5453 0.0261565 -0.131815)
57            (30.1872 -0.00580207 -0.00714318) (31.0225 -0.0371378 -0.0585252) (28.6555 0.0171396 -0.129598)
58            (30.1756 -0.00785188 -0.00648623) (30.9491 -0.0366081 -0.0381986) (28.7173 0.00796615 -0.122856)
59            (30.1668 -0.00957987 -0.00579494) (30.9081 -0.0357947 -0.0201705) (28.7433 -0.000295882 -0.110141)
60            (30.1612 -0.0109472 -0.00497123) (30.9014 -0.0336921 -0.009964) (28.7561 -0.00765201 -0.0927842)
61            (30.1583 -0.0120708 -0.00406338) (30.9117 -0.030024 -0.010195) (28.7747 -0.0147866 -0.0747182)
62            (30.1568 -0.0129558 -0.00322855) (30.912 -0.0252128 -0.0172357) (28.7872 -0.0213885 -0.0600467)
63            (30.1564 -0.0138921 -0.00249124) (30.8861 -0.0200193 -0.0226795) (28.7779 -0.0277046 -0.0496008)
64            (30.1568 -0.0149847 -0.00180868) (30.8332 -0.0155781 -0.0208612) (28.7506 -0.0332061 -0.0400882)
65            (30.1575 -0.0158012 -0.0011615) (30.7596 -0.0127659 -0.0112055) (28.7053 -0.0365153 -0.0297272)
66            (30.1577 -0.0165098 -0.000520088) (30.6733 -0.0113639 0.00242709) (28.6388 -0.0379196 -0.0201924)
67            (30.158 -0.0171653 0.000159579) (30.5864 -0.0101928 0.0140744) (28.5588 -0.0370748 -0.0145142)
68            (30.1585 -0.0175609 0.000752816) (30.5118 -0.00828985 0.0194729) (28.4867 -0.0354051 -0.014836)
69            (30.1589 -0.0178672 0.00109376) (30.4576 -0.00528415 0.0182017) (28.4199 -0.0329206 -0.0207772)
70            (30.1593 -0.018135 0.00112462) (30.4265 -0.00120214 0.0117831) (28.3502 -0.0293923 -0.0316356)
71            (30.1595 -0.0182976 0.000832344) (30.4161 0.00341018 0.00235154) (28.2785 -0.0257343 -0.0487511)
72            (30.1596 -0.0183753 0.000511678) (30.4213 0.00779798 -0.00710319) (28.2097 -0.0220442 -0.065546)
73            (30.1594 -0.0184042 0.000181563) (30.4341 0.0110994 -0.0123631) (28.1435 -0.0185562 -0.0771541)
74            (30.159 -0.0183908 -0.000175095) (30.4438 0.0126638 -0.0110289) (28.0867 -0.0140493 -0.0798107)
75            (30.1581 -0.0183643 -0.000389214) (30.4408 0.0123107 -0.00382322) (28.0433 -0.0100471 -0.0748066)
76            (30.1569 -0.0182962 -0.000581415) (30.4217 0.010492 0.00630136) (28.0198 -0.00595505 -0.0665302)
77            (30.1548 -0.0182442 -0.000787745) (30.3934 0.00829693 0.0155361) (28.0192 -0.00287431 -0.0595348)
78            (30.1521 -0.0181523 -0.000978789) (30.3668 0.00674415 0.0208906) (28.0293 0.000303824 -0.0548169)
79            (30.1493 -0.0180556 -0.00109799) (30.3484 0.00633224 0.0212335) (28.0309 0.00349251 -0.0513558)
80            (30.1466 -0.0179307 -0.00116863) (30.3384 0.00696024 0.0175071) (28.0172 0.00683443 -0.0477408)
81            (30.1449 -0.0177699 -0.00119181) (30.3354 0.00811437 0.011346) (27.9854 0.0100787 -0.0444747)
82            (30.1442 -0.0175919 -0.00123305) (30.3318 0.00912247 0.00440493) (27.9352 0.0129364 -0.0432416)
83            (30.1436 -0.0174229 -0.0013929) (30.3184 0.00942887 -0.00129151) (27.8799 0.0154176 -0.0440534)
84            (30.1431 -0.0172443 -0.00161421) (30.2956 0.0086744 -0.0044266) (27.8347 0.0173878 -0.0467043)
85            (30.1428 -0.0170467 -0.00173437) (30.2675 0.00682201 -0.00519913) (27.8025 0.0187214 -0.0498565)
86            (30.1426 -0.0168487 -0.00179213) (30.2362 0.00425258 -0.00444151) (27.7816 0.0196056 -0.0533411)
87            (30.1427 -0.0166653 -0.00181155) (30.2042 0.00151712 -0.00368543) (27.7733 0.0202315 -0.0577749)
88            (30.1432 -0.0164979 -0.00181701) (30.1766 -0.000913504 -0.00419028) (27.785 0.020721 -0.0634373)
89            (30.1443 -0.0163336 -0.00183477) (30.1569 -0.00274062 -0.00619124) (27.8206 0.0210134 -0.0710994)
90            (30.1456 -0.0161688 -0.00186874) (30.144 -0.00380669 -0.00844368) (27.8669 0.0210454 -0.0778456)
91            (30.1471 -0.0160164 -0.00188925) (30.1368 -0.00415739 -0.00958241) (27.9115 0.0207882 -0.0834142)
92            (30.1484 -0.0158752 -0.00188703) (30.1339 -0.00405158 -0.00841334) (27.9545 0.0201971 -0.0880844)
93            (30.1496 -0.0157365 -0.00185615) (30.1321 -0.00387418 -0.0041593) (27.9957 0.0191879 -0.090144)
94            (30.1506 -0.0156008 -0.00182393) (30.1289 -0.00397792 0.00216764) (28.0355 0.0176131 -0.0896775)
95            (30.1516 -0.0154739 -0.00181333) (30.1223 -0.00452945 0.00810061) (28.0755 0.0154519 -0.0879714)
96            (30.1526 -0.0153606 -0.00182414) (30.1113 -0.00547282 0.0113823) (28.1179 0.0128915 -0.086391)
97            (30.1536 -0.0152609 -0.00183066) (30.097 -0.00659413 0.0112551) (28.1656 0.010237 -0.0857373)
98            (30.1548 -0.0151731 -0.00180499) (30.0822 -0.00763366 0.0085691) (28.2215 0.00770414 -0.0859108)
99            (30.1559 -0.0150998 -0.00176205) (30.0699 -0.00838783 0.00492798) (28.2808 0.00532881 -0.0861076)
100           (30.1567 -0.0150402 -0.00173069) (30.0598 -0.00872867 0.00133838) (28.3335 0.00313553 -0.0857323)
101           (30.1572 -0.0149881 -0.00169097) (30.0507 -0.00862321 -0.00213284) (28.378 0.00114059 -0.0844637)
102           (30.1575 -0.0149406 -0.00164031) (30.0418 -0.008152 -0.0058091) (28.4158 -0.000730671 -0.0825133)
103           (30.1577 -0.0148978 -0.00158168) (30.0333 -0.00747534 -0.00963268) (28.4463 -0.00257319 -0.0807292)
104           (30.1577 -0.0148606 -0.00152137) (30.0264 -0.00676755 -0.0129483) (28.4685 -0.00440211 -0.0800278)
105           (30.1576 -0.0148296 -0.00146372) (30.0222 -0.00616215 -0.0148806) (28.4821 -0.00612365 -0.0808498)
106           (30.1575 -0.0148037 -0.00140847) (30.0207 -0.00572999 -0.014807) (28.4877 -0.00758526 -0.082995)
107           (30.1573 -0.0147804 -0.00135014) (30.0213 -0.00548515 -0.0127157) (28.4869 -0.0086592 -0.0858267)
108           (30.1572 -0.0147565 -0.00128011) (30.023 -0.00540458 -0.00927523) (28.4839 -0.00931357 -0.0885634)
109           (30.1571 -0.0147266 -0.00122037) (30.0258 -0.00545033 -0.00554566) (28.4809 -0.00966338 -0.0904762)
110           (30.1567 -0.0147004 -0.00120234) (30.0293 -0.00557899 -0.00239588) (28.4746 -0.00965992 -0.0911739)
111           (30.1562 -0.0146761 -0.00118564) (30.0321 -0.00570895 -0.000250123) (28.4638 -0.00940437 -0.090686)
112           (30.1556 -0.0146464 -0.00115634) (30.0332 -0.0057834 0.00111277) (28.4499 -0.00888694 -0.0889066)
113           (30.155 -0.0146171 -0.00112528) (30.0323 -0.00577882 0.00222026) (28.4338 -0.00857331 -0.085816)
114           (30.1544 -0.014588 -0.00110122) (30.0292 -0.00567854 0.00341573) (28.4161 -0.00835291 -0.0819077)
115           (30.1539 -0.0145504 -0.00109181) (30.0248 -0.00548138 0.00467439) (28.3971 -0.00803513 -0.0777927)
116           (30.1535 -0.0145145 -0.00109666) (30.0202 -0.00520668 0.00567257) (28.3778 -0.00769885 -0.0739197)
117           (30.1531 -0.0144792 -0.00110437) (30.016 -0.00486646 0.0061152) (28.3592 -0.0072805 -0.0705201)
118           (30.1528 -0.0144462 -0.00110897) (30.0128 -0.00448091 0.00597301) (28.3411 -0.00674545 -0.0675484)
119           (30.1526 -0.014413 -0.00111429) (30.0108 -0.00407666 0.00549232) (28.3229 -0.00611352 -0.0649097)
120           (30.1524 -0.0143746 -0.00112565) (30.0097 -0.00368289 0.00505231) (28.3037 -0.00544947 -0.0627845)
121           (30.1522 -0.0143285 -0.00114602) (30.0096 -0.00332855 0.00492232) (28.283 -0.00481883 -0.0612973)
122           (30.1521 -0.0142791 -0.00117349) (30.0101 -0.00301613 0.00506296) (28.2604 -0.00427169 -0.0605136)
123           (30.152 -0.014233 -0.00120445) (30.0107 -0.00273324 0.00526123) (28.2367 -0.00381798 -0.0603562)
124           (30.152 -0.0141936 -0.00123603) (30.0111 -0.00247123 0.0053734) (28.2126 -0.00343105 -0.0607213)
125           (30.1521 -0.0141603 -0.00126682) (30.0113 -0.00223021 0.00543907) (28.1894 -0.00306591 -0.0615121)
126           (30.1523 -0.0141298 -0.00129735) (30.0114 -0.00201231 0.00560994) (28.1677 -0.0026788 -0.0625927)
127           (30.1525 -0.0140998 -0.001329) (30.0118 -0.0018151 0.00600463) (28.148 -0.00223888 -0.0637807)
128           (30.1529 -0.0140696 -0.00136329) (30.0123 -0.00163156 0.00662209) (28.1297 -0.00173442 -0.0648923)
129           (30.1534 -0.0140404 -0.00140169) (30.0125 -0.0014549 0.00735346) (28.1127 -0.00117685 -0.0657892)
130           (30.154 -0.0140134 -0.00144198) (30.0122 -0.00128215 0.00805821) (28.0964 -0.000596628 -0.0664089)
131           (30.1546 -0.0139889 -0.00148162) (30.0111 -0.00111382 0.00864489) (28.0806 -3.26809e-05 -0.0667441)
132           (30.1553 -0.0139666 -0.00151914) (30.0091 -0.000951976 0.00909899) (28.0654 0.000479617 -0.0668064)
133           (30.1561 -0.013946 -0.00155444) (30.0067 -0.000798217 0.00945057) (28.0513 0.000917601 -0.0666304)
134           (30.1569 -0.0139267 -0.0015882) (30.004 -0.000651589 0.00972497) (28.0385 0.00127589 -0.0662954)
135           (30.1577 -0.0139084 -0.00162103) (30.0012 -0.00050798 0.00991709) (28.027 0.00156484 -0.0659214)
136           (30.1585 -0.0138914 -0.0016532) (29.9984 -0.000361224 0.0100041) (28.0168 0.00180424 -0.0656331)
137           (30.1594 -0.0138755 -0.0016848) (29.9957 -0.000205535 0.0099736) (28.0076 0.00201573 -0.0655165)
138           (30.1603 -0.0138608 -0.00171604) (29.993 -3.80087e-05 0.00984379) (27.9989 0.00221772 -0.0655959)
139           (30.1612 -0.0138469 -0.00174689) (29.9903 0.00014056 0.00966019) (27.9908 0.00242277 -0.0658456)
140           (30.1621 -0.0138334 -0.00177784) (29.9878 0.00032654 0.00947366) (27.9832 0.00263691 -0.0662216)
141           (30.1631 -0.0138205 -0.00181113) (29.9855 0.000514968 0.00931875) (27.976 0.00286003 -0.0666908)
142           (30.164 -0.0138081 -0.00184754) (29.9835 0.000700691 0.00920517) (27.9694 0.00308792 -0.067238)
143           (30.165 -0.013796 -0.00188629) (29.9818 0.00087916 0.00912475) (27.9633 0.00331485 -0.0678513)
144           (30.1659 -0.0137841 -0.00192698) (29.9803 0.00104708 0.00906869) (27.9577 0.00353557 -0.0685057)
145           (30.1668 -0.0137724 -0.00196817) (29.979 0.00120258 0.00903799) (27.9525 0.00374647 -0.0691575)
146           (30.1677 -0.0137608 -0.00200947) (29.9779 0.00134516 0.00904012) (27.9478 0.00394607 -0.0697495)
147           (30.1686 -0.0137491 -0.002052) (29.9769 0.00147557 0.00907666) (27.9435 0.00413508 -0.070224)
148           (30.1695 -0.0137373 -0.00209651) (29.9759 0.00159544 0.00913258) (27.9395 0.00431644 -0.0705373)
149           (30.1704 -0.0137256 -0.00214394) (29.9752 0.00170698 0.0091764) (27.9354 0.00449614 -0.0706718)
150           (30.1713 -0.0137138 -0.00219507) (29.9743 0.00181299 0.00917114) (27.9308 0.00468161 -0.0706496)
151           (30.1721 -0.0137018 -0.00224923) (29.973 0.00191943 0.00908402) (27.9245 0.00488105 -0.0705504)
152           (30.173 -0.0136896 -0.00230536) (29.971 0.00202845 0.00890539) (27.9173 0.00508297 -0.0704157)
153           (30.1738 -0.0136771 -0.00236246) (29.969 0.00212925 0.00866513) (27.9119 0.0052384 -0.0701999)
154           (30.1746 -0.0136643 -0.0024183) (29.9673 0.00221881 0.00839762) (27.908 0.00534186 -0.0699229)
155           (30.1754 -0.0136496 -0.00246655) (29.9665 0.0022948 0.00811885) (27.9054 0.00542175 -0.0696007)
156           (30.1761 -0.0136364 -0.00250125) (29.9663 0.00235733 0.00781729) (27.904 0.00549866 -0.0692694)
157           (30.1771 -0.0136248 -0.00252072) (29.966 0.00241231 0.00747981) (27.9018 0.0055841 -0.068993)
158           (30.1778 -0.0136144 -0.00252708) (29.9653 0.00246719 0.00711293) (27.8983 0.00568696 -0.0687886)
159           (30.1787 -0.013605 -0.00252418) (29.9645 0.00251704 0.0067187) (27.8951 0.00576329 -0.0685815)
160           (30.1796 -0.0135958 -0.00251525) (29.9637 0.00256358 0.00632619) (27.8921 0.00580539 -0.0684129)
161           (30.1804 -0.0135868 -0.0025034) (29.9632 0.00260638 0.00595813) (27.8896 0.00582452 -0.0682923)
162           (30.1813 -0.0135777 -0.0024923) (29.9632 0.00264337 0.00562102) (27.8875 0.00584403 -0.0682042)
163           (30.1821 -0.0135689 -0.0024847) (29.9637 0.00267377 0.00530854) (27.8853 0.00588037 -0.0681448)
164           (30.183 -0.0135603 -0.00247872) (29.9643 0.00269866 0.00501457) (27.8827 0.00593378 -0.0681208)
165           (30.1838 -0.0135519 -0.00246956) (29.9648 0.00271961 0.00474315) (27.88 0.00599867 -0.0681358)
166           (30.1846 -0.0135437 -0.00244992) (29.9653 0.00273847 0.00450631) (27.8772 0.00606609 -0.0682117)
167           (30.1854 -0.0135356 -0.00242193) (29.9657 0.00275743 0.00431506) (27.8746 0.00612441 -0.0683178)
168           (30.1862 -0.0135276 -0.00239123) (29.9663 0.00277494 0.00417037) (27.8725 0.00617939 -0.0684085)
169           (30.187 -0.0135196 -0.00236381) (29.9672 0.00278832 0.00406516) (27.8708 0.00624211 -0.0684649)
170           (30.1878 -0.013512 -0.00234233) (29.9683 0.00279714 0.00398689) (27.8692 0.00631631 -0.0685146)
171           (30.1885 -0.0135048 -0.00232568) (29.9695 0.00280368 0.00392015) (27.8675 0.00639741 -0.0686043)
172           (30.1893 -0.0134982 -0.00231182) (29.9704 0.00281055 0.00385134) (27.8657 0.00647763 -0.0687556)
173           (30.19 -0.0134925 -0.00229984) (29.9712 0.00281861 0.00377281) (27.8639 0.00654996 -0.0689447)
174           (30.1907 -0.0134875 -0.00229098) (29.9719 0.0028272 0.00368242) (27.8624 0.00661013 -0.0691247)
175           (30.1914 -0.0134833 -0.00228563) (29.9725 0.00283607 0.00357489) (27.8614 0.0066564 -0.0692692)
176           (30.192 -0.0134796 -0.00228348) (29.9732 0.00284492 0.0034421) (27.861 0.00668801 -0.0693695)
177           (30.1926 -0.0134762 -0.00228434) (29.9741 0.00285111 0.00328755) (27.8613 0.00670442 -0.0694104)
178           (30.1933 -0.0134728 -0.00228699) (29.9752 0.0028542 0.00310525) (27.8622 0.00671061 -0.0694138)
179           (30.1939 -0.0134695 -0.00229058) (29.9764 0.00285663 0.00287867) (27.8632 0.00671512 -0.0694363)
180           (30.1945 -0.0134669 -0.00229603) (29.9775 0.00286103 0.00259159) (27.8638 0.00672335 -0.0695294)
181           (30.1951 -0.0134649 -0.00230429) (29.9783 0.00286815 0.00223632) (27.8638 0.00673362 -0.0696963)
182           (30.1957 -0.0134633 -0.00231379) (29.9788 0.00287708 0.00181743) (27.8637 0.0067387 -0.0698868)
183           (30.1963 -0.0134621 -0.00232498) (29.9792 0.00288692 0.00135363) (27.8638 0.00673187 -0.0700432)
184           (30.1968 -0.0134609 -0.00233777) (29.9795 0.00289776 0.000869346) (27.8642 0.00670975 -0.0701315)
185           (30.1973 -0.0134597 -0.00235218) (29.9798 0.00290967 0.000385367) (27.865 0.00667313 -0.0701319)
186           (30.1978 -0.0134585 -0.0023674) (29.9802 0.00292163 -8.26406e-05) (27.8663 0.00662716 -0.070047)
187           (30.1983 -0.0134573 -0.00238219) (29.9807 0.00293166 -0.000522036) (27.8678 0.00657955 -0.0699135)
188           (30.1988 -0.0134563 -0.00239687) (29.9813 0.00293811 -0.000924057) (27.8692 0.00653693 -0.0697837)
189           (30.1992 -0.0134557 -0.00241227) (29.9818 0.00294078 -0.00128421) (27.8704 0.00650299 -0.0696962)
190           (30.1997 -0.0134554 -0.00242887) (29.9823 0.00294111 -0.00159734) (27.8716 0.00647862 -0.0696641)
191           (30.2001 -0.0134554 -0.00244655) (29.9826 0.0029414 -0.00185381) (27.8726 0.00646219 -0.0696781)
192           (30.2006 -0.0134556 -0.002465) (29.9829 0.0029433 -0.00204111) (27.8736 0.0064502 -0.0697175)
193           (30.201 -0.0134559 -0.00248378) (29.9831 0.00294683 -0.00215005) (27.8747 0.00643868 -0.0697665)
194           (30.2014 -0.0134563 -0.00250238) (29.9833 0.00295092 -0.00218307) (27.8757 0.00642501 -0.069828)
195           (30.2018 -0.0134567 -0.00251981) (29.9836 0.00295441 -0.0021565) (27.8769 0.00640909 -0.0699223)
196           (30.2021 -0.0134571 -0.00253572) (29.984 0.00295656 -0.00209383) (27.878 0.00639315 -0.0700775)
197           (30.2025 -0.0134578 -0.00255065) (29.9846 0.00295713 -0.00201739) (27.8792 0.00638034 -0.0703181)
198           (30.2028 -0.0134586 -0.00256513) (29.9852 0.00295636 -0.00194394) (27.8804 0.00637299 -0.0706562)
199           (30.2031 -0.0134595 -0.00257943) (29.986 0.0029548 -0.00188462) (27.8816 0.00637159 -0.0710866)
200           (30.2034 -0.0134606 -0.00259359) (29.9868 0.00295314 -0.0018475) (27.8828 0.00637489 -0.0715891)
201           (30.2037 -0.0134618 -0.00260754) (29.9876 0.002952 -0.0018391) (27.8839 0.00638074 -0.0721377)
202           (30.2041 -0.0134631 -0.00262118) (29.9884 0.00295176 -0.00186397) (27.885 0.00638712 -0.0727083)
203           (30.2044 -0.0134646 -0.00263456) (29.9893 0.00295247 -0.00192385) (27.886 0.00639281 -0.0732848)
204           (30.2046 -0.0134663 -0.00264733) (29.9901 0.00295393 -0.00201717) (27.8868 0.00639746 -0.0738577)
205           (30.2049 -0.0134679 -0.00265858) (29.991 0.00295578 -0.00213897) (27.8876 0.00640127 -0.0744197)
206           (30.2051 -0.0134695 -0.00266871) (29.9918 0.00295766 -0.0022815) (27.8883 0.00640447 -0.074961)
207           (30.2054 -0.0134712 -0.00267835) (29.9926 0.00295936 -0.00243542) (27.8889 0.0064071 -0.0754676)
208           (30.2056 -0.013473 -0.00268777) (29.9934 0.00296085 -0.0025914) (27.8896 0.00640901 -0.0759234)
209           (30.2058 -0.0134748 -0.00269664) (29.9941 0.00296231 -0.0027414) (27.8902 0.00640997 -0.0763144)
210           (30.206 -0.0134768 -0.00270446) (29.9949 0.00296394 -0.00287947) (27.8908 0.00640987 -0.0766324)
211           (30.2061 -0.0134787 -0.00271099) (29.9956 0.00296584 -0.00300155) (27.8915 0.00640871 -0.0768773)
212           (30.2063 -0.0134805 -0.00271644) (29.9963 0.00296792 -0.00310511) (27.8922 0.00640658 -0.0770565)
213           (30.2065 -0.0134824 -0.00272122) (29.997 0.00296993 -0.00318907) (27.8928 0.00640353 -0.0771818)
214           (30.2067 -0.0134844 -0.00272577) (29.9976 0.00297165 -0.0032539) (27.8935 0.00639962 -0.0772653)
215           (30.2068 -0.0134864 -0.0027303) (29.9983 0.00297306 -0.00330142) (27.8942 0.00639493 -0.0773166)
216           (30.207 -0.0134883 -0.00273457) (29.9989 0.00297425 -0.00333469) (27.8949 0.00638961 -0.0773421)
217           (30.2071 -0.0134902 -0.00273808) (29.9996 0.00297541 -0.00335762) (27.8956 0.00638385 -0.0773471)
218           (30.2072 -0.013492 -0.0027405) (30.0002 0.00297662 -0.00337422) (27.8964 0.00637791 -0.0773374)
219           (30.2073 -0.0134938 -0.00274187) (30.0009 0.00297787 -0.00338784) (27.8972 0.00637201 -0.0773204)
220           (30.2074 -0.0134956 -0.00274255) (30.0015 0.00297907 -0.00340071) (27.8981 0.00636638 -0.077305)
221           (30.2075 -0.0134974 -0.00274292) (30.0022 0.00298012 -0.00341395) (27.8989 0.00636122 -0.0772992)
222           (30.2076 -0.013499 -0.00274314) (30.0028 0.00298096 -0.00342804) (27.8998 0.00635671 -0.0773091)
223           (30.2077 -0.0135006 -0.00274314) (30.0035 0.00298164 -0.00344341) (27.9007 0.00635305 -0.0773371)
224           (30.2078 -0.0135022 -0.00274269) (30.0042 0.00298224 -0.00346085) (27.9016 0.00635038 -0.0773816)
225           (30.2078 -0.0135036 -0.00274181) (30.0048 0.00298289 -0.00348162) (27.9025 0.00634877 -0.0774384)
226           (30.2079 -0.013505 -0.00274076) (30.0055 0.00298368 -0.00350688) (27.9033 0.0063482 -0.0775016)
227           (30.208 -0.0135064 -0.0027395) (30.0061 0.00298467 -0.00353712) (27.9042 0.00634854 -0.077566)
228           (30.208 -0.0135076 -0.00273825) (30.0068 0.00298589 -0.00357164) (27.9051 0.00634962 -0.0776289)
229           (30.2081 -0.0135087 -0.00273659) (30.0074 0.00298731 -0.00360807) (27.906 0.00635103 -0.0776875)
230           (30.2081 -0.0135099 -0.00273405) (30.008 0.00298878 -0.00364606) (27.9068 0.00635258 -0.0777383)
231           (30.2082 -0.013511 -0.00273132) (30.0086 0.00299041 -0.00368428) (27.9077 0.00635448 -0.0777833)
232           (30.2082 -0.0135119 -0.00272847) (30.0091 0.0029922 -0.00371897) (27.9086 0.00635636 -0.077824)
233           (30.2082 -0.0135128 -0.00272547) (30.0097 0.00299409 -0.0037491) (27.9095 0.00635815 -0.0778587)
234           (30.2082 -0.0135136 -0.00272234) (30.0102 0.00299591 -0.00377655) (27.9103 0.00635982 -0.0778871)
235           (30.2083 -0.0135144 -0.00271919) (30.0108 0.00299761 -0.00380169) (27.9112 0.00636134 -0.0779094)
236           (30.2083 -0.0135151 -0.00271603) (30.0113 0.00299915 -0.00382629) (27.9121 0.00636273 -0.0779249)
237           (30.2083 -0.0135158 -0.00271291) (30.0118 0.00300046 -0.00385023) (27.913 0.00636395 -0.0779341)
238           (30.2083 -0.0135164 -0.0027102) (30.0122 0.00300184 -0.00387252) (27.9139 0.00636487 -0.0779375)
239           (30.2083 -0.0135169 -0.00270751) (30.0127 0.00300329 -0.00389277) (27.9148 0.00636544 -0.0779367)
240           (30.2083 -0.0135174 -0.00270484) (30.0131 0.00300486 -0.00391144) (27.9157 0.00636598 -0.0779331)
241           (30.2083 -0.0135179 -0.00270231) (30.0135 0.00300655 -0.00392692) (27.9165 0.00636629 -0.0779279)
242           (30.2083 -0.0135182 -0.00269901) (30.0139 0.0030082 -0.00393854) (27.9174 0.00636624 -0.0779229)
243           (30.2084 -0.0135187 -0.00269499) (30.0143 0.00300975 -0.00394702) (27.9183 0.00636601 -0.0779187)
244           (30.2084 -0.013519 -0.00269123) (30.0146 0.00301112 -0.00395283) (27.9191 0.00636572 -0.0779148)
245           (30.2084 -0.0135193 -0.00268736) (30.0149 0.00301218 -0.00395668) (27.92 0.0063653 -0.0779112)
246           (30.2084 -0.0135196 -0.00268334) (30.0152 0.003013 -0.00395938) (27.9208 0.00636483 -0.0779081)
247           (30.2084 -0.0135199 -0.00267959) (30.0155 0.00301388 -0.00396092) (27.9217 0.00636424 -0.077906)
248           (30.2084 -0.0135201 -0.00267611) (30.0158 0.00301494 -0.00396235) (27.9225 0.00636355 -0.0779042)
249           (30.2084 -0.0135203 -0.00267306) (30.016 0.00301634 -0.00396397) (27.9233 0.00636293 -0.0779028)
250           (30.2084 -0.0135204 -0.00267046) (30.0163 0.00301792 -0.00396381) (27.9241 0.00636232 -0.0779035)
251           (30.2084 -0.0135204 -0.00266774) (30.0165 0.00301947 -0.00396209) (27.9249 0.00636164 -0.0779061)
252           (30.2084 -0.0135205 -0.00266471) (30.0167 0.00302092 -0.00395921) (27.9257 0.00636106 -0.0779104)
253           (30.2084 -0.0135205 -0.00266156) (30.0169 0.0030223 -0.00395415) (27.9265 0.00636064 -0.077916)
254           (30.2084 -0.0135206 -0.00265831) (30.017 0.00302355 -0.00394691) (27.9272 0.00636026 -0.0779222)
255           (30.2084 -0.0135206 -0.00265502) (30.0172 0.0030247 -0.00393877) (27.9279 0.0063598 -0.0779271)
256           (30.2084 -0.0135207 -0.00265176) (30.0173 0.00302596 -0.00393058) (27.9286 0.00635931 -0.0779307)
257           (30.2084 -0.0135207 -0.00264878) (30.0174 0.0030274 -0.00392119) (27.9293 0.00635871 -0.0779335)
258           (30.2084 -0.0135206 -0.0026459) (30.0176 0.00302897 -0.00391067) (27.93 0.00635782 -0.0779348)
259           (30.2084 -0.0135206 -0.00264302) (30.0176 0.00303063 -0.00389932) (27.9306 0.00635666 -0.0779339)
260           (30.2084 -0.0135206 -0.00264015) (30.0177 0.00303242 -0.00388824) (27.9312 0.00635537 -0.0779301)
261           (30.2084 -0.0135206 -0.0026374) (30.0178 0.0030345 -0.00387757) (27.9319 0.00635411 -0.0779241)
262           (30.2084 -0.0135205 -0.00263479) (30.0178 0.00303666 -0.0038657) (27.9325 0.00635296 -0.0779185)
263           (30.2084 -0.0135204 -0.00263238) (30.0179 0.0030387 -0.00385225) (27.933 0.00635188 -0.0779137)
264           (30.2084 -0.0135202 -0.00263018) (30.0179 0.00304052 -0.00383735) (27.9336 0.00635087 -0.0779097)
265           (30.2084 -0.0135201 -0.00262806) (30.0179 0.00304223 -0.00382166) (27.9341 0.00634996 -0.0779062)
266           (30.2084 -0.0135201 -0.00262556) (30.0179 0.00304408 -0.00380656) (27.9346 0.0063491 -0.0779032)
267           (30.2084 -0.0135201 -0.00262251) (30.0179 0.00304641 -0.00379195) (27.9351 0.00634823 -0.0779007)
268           (30.2084 -0.01352 -0.00261933) (30.0179 0.00304903 -0.00377679) (27.9355 0.00634742 -0.0778966)
269           (30.2084 -0.0135199 -0.00261615) (30.0179 0.00305179 -0.00376114) (27.936 0.00634658 -0.0778896)
270           (30.2084 -0.0135198 -0.00261319) (30.0179 0.00305457 -0.00374538) (27.9364 0.00634565 -0.0778795)
271           (30.2084 -0.0135198 -0.00261052) (30.0178 0.00305733 -0.00372992) (27.9367 0.00634462 -0.0778665)