# Residuals   
# Time        	Ux            	Uy            	Uz            	p             
0             	N/A	N/A
1             	1.000000e+00	1.000000e+00	1.000000e+00	1.000000e+00
2             	9.403961e-02	2.310833e-01	2.324582e-01	1.226372e-02
3             	3.003524e-01	3.142951e-01	2.950906e-01	8.119660e-05
4             	2.400231e-01	2.018387e-01	2.086031e-01	5.443290e-05
5             	7.986183e-02	1.464793e-01	1.421122e-01	1.661453e-04
6             	1.449737e-01	1.498637e-01	1.455970e-01	1.886621e-04
7             	1.525264e-01	1.532101e-01	1.551002e-01	1.303770e-04
8             	7.858086e-02	1.197870e-01	1.255360e-01	2.984133e-04
9             	1.013476e-01	1.130754e-01	1.170555e-01	2.879866e-04
10            	8.653698e-02	1.155002e-01	1.184490e-01	1.361721e-04
11            	5.639261e-02	1.028100e-01	1.042304e-01	1.825880e-04
12            	6.121314e-02	9.904725e-02	9.641371e-02	5.225037e-03
13            	5.764112e-02	9.614913e-02	9.298045e-02	8.378168e-04
14            	4.820528e-02	9.606651e-02	9.467314e-02	1.854798e-03
15            	4.664135e-02	1.023087e-01	1.004984e-01	1.690257e-03
16            	4.225251e-02	1.028353e-01	9.805016e-02	7.820474e-04
17            	3.929469e-02	9.696211e-02	8.969982e-02	7.728264e-04
18            	3.688924e-02	9.263645e-02	8.366312e-02	1.317017e-03
19            	3.348197e-02	9.511841e-02	8.487774e-02	2.592631e-03
20            	3.252462e-02	9.804705e-02	8.795784e-02	2.368343e-03
21            	3.059693e-02	9.580152e-02	8.545078e-02	1.280123e-03
22            	2.954217e-02	9.217104e-02	8.024730e-02	8.564415e-04
23            	2.937712e-02	9.121736e-02	7.756102e-02	6.968138e-04
24            	2.738620e-02	9.217893e-02	7.696261e-02	6.970596e-04
25            	2.588656e-02	9.538060e-02	7.966865e-02	7.363955e-04
26            	2.564249e-02	9.672028e-02	8.120249e-02	7.926932e-04
27            	2.534377e-02	9.615811e-02	8.121792e-02	7.699231e-04
28            	2.458955e-02	9.574491e-02	8.018471e-02	6.960505e-04
29            	2.381835e-02	9.732900e-02	7.919433e-02	5.887813e-04
30            	2.341438e-02	9.966101e-02	8.091548e-02	5.204980e-04
31            	2.330842e-02	9.990985e-02	8.259173e-02	4.897116e-04
32            	2.355172e-02	9.743229e-02	8.345505e-02	4.698725e-04
33            	2.363797e-02	9.412602e-02	8.285276e-02	4.846452e-04
34            	2.321997e-02	9.193641e-02	8.151721e-02	4.825471e-04
35            	2.226980e-02	9.065300e-02	8.025844e-02	4.430953e-04
36            	2.163641e-02	9.158821e-02	7.838019e-02	3.957732e-04
37            	2.133997e-02	9.171297e-02	7.762374e-02	3.470484e-04
38            	2.100163e-02	8.792644e-02	7.644360e-02	3.112734e-04
39            	2.009459e-02	8.485758e-02	7.500091e-02	2.865611e-04
40            	1.888952e-02	8.305989e-02	7.187792e-02	2.636848e-04
41            	1.822578e-02	8.207021e-02	7.026514e-02	2.482767e-04
42            	1.792921e-02	8.165159e-02	6.955498e-02	2.433062e-04
43            	1.770812e-02	8.029129e-02	6.787251e-02	2.341167e-04
44            	1.723947e-02	7.873830e-02	6.725984e-02	2.209438e-04
45            	1.663144e-02	7.736023e-02	6.625346e-02	2.047683e-04
46            	1.614315e-02	7.622455e-02	6.461468e-02	1.885284e-04
47            	1.589819e-02	7.507859e-02	6.283243e-02	1.707840e-04
48            	1.554388e-02	7.517054e-02	6.016064e-02	1.550499e-04
49            	1.504870e-02	7.458110e-02	5.950212e-02	1.433010e-04
50            	1.455380e-02	7.348414e-02	5.899022e-02	1.335170e-04
51            	1.416622e-02	7.217244e-02	5.844072e-02	1.280060e-04
52            	1.389350e-02	6.972868e-02	5.664755e-02	1.227718e-04
53            	1.353739e-02	6.919637e-02	5.466523e-02	1.175871e-04
54            	1.296342e-02	6.896359e-02	5.353763e-02	1.121417e-04
55            	1.248747e-02	6.687226e-02	5.240419e-02	1.062630e-04
56            	1.209167e-02	6.433487e-02	5.055579e-02	1.015295e-04
57            	1.169813e-02	6.219945e-02	4.874632e-02	9.829211e-05
58            	1.127255e-02	6.059308e-02	4.746215e-02	9.586269e-05
59            	1.083609e-02	5.940723e-02	4.666045e-02	9.359045e-05
60            	1.044460e-02	5.811202e-02	4.616881e-02	9.086271e-05
61            	1.016424e-02	5.667443e-02	4.544996e-02	8.773785e-05
62            	9.920136e-03	5.539960e-02	4.462391e-02	8.527595e-05
63            	9.651277e-03	5.460005e-02	4.393190e-02	8.247799e-05
64            	9.367386e-03	5.401088e-02	4.317084e-02	7.871584e-05
65            	9.106465e-03	5.339403e-02	4.225303e-02	7.564093e-05
66            	8.849401e-03	5.230588e-02	4.113355e-02	7.382806e-05
67            	8.565614e-03	5.095504e-02	3.995539e-02	7.261165e-05
68            	8.277072e-03	4.939411e-02	3.892507e-02	7.041769e-05
69            	7.998299e-03	4.767911e-02	3.809360e-02	6.887500e-05
70            	7.734070e-03	4.598821e-02	3.720315e-02	6.754116e-05
71            	7.506519e-03	4.424036e-02	3.621871e-02	6.585424e-05
72            	7.275392e-03	4.248007e-02	3.534443e-02	6.430594e-05
73            	7.043602e-03	4.077801e-02	3.457761e-02	6.249897e-05
74            	6.810512e-03	3.929249e-02	3.381517e-02	6.113758e-05
75            	6.575846e-03	3.820907e-02	3.289604e-02	5.996892e-05
76            	6.352677e-03	3.719873e-02	3.196101e-02	5.907956e-05
77            	6.167516e-03	3.608233e-02	3.111313e-02	5.766621e-05
78            	6.007040e-03	3.501023e-02	3.037621e-02	5.595661e-05
79            	5.849477e-03	3.396647e-02	2.965209e-02	5.546982e-05
80            	5.682352e-03	3.308221e-02	2.877832e-02	5.493171e-05
81            	5.520806e-03	3.227467e-02	2.773983e-02	5.468168e-05
82            	5.422470e-03	3.139079e-02	2.683794e-02	5.388181e-05
83            	5.362369e-03	3.060887e-02	2.621708e-02	5.366094e-05
84            	5.313855e-03	3.000635e-02	2.583187e-02	5.329872e-05
85            	5.242540e-03	2.953486e-02	2.612756e-02	5.197974e-05
86            	5.201412e-03	2.935778e-02	2.584250e-02	5.079095e-05
87            	5.159073e-03	2.918664e-02	2.604767e-02	4.935554e-05
88            	5.175996e-03	2.903962e-02	2.574919e-02	4.709980e-05
89            	5.243039e-03	2.850689e-02	2.587695e-02	4.430358e-05
90            	5.332492e-03	2.821895e-02	2.562321e-02	4.445059e-05
91            	5.388484e-03	2.827746e-02	2.625541e-02	4.626061e-05
92            	5.436018e-03	2.868808e-02	2.715929e-02	4.679323e-05
93            	5.501485e-03	2.910488e-02	2.804420e-02	4.728166e-05
94            	5.598164e-03	2.932677e-02	2.886428e-02	4.694223e-05
95            	5.681858e-03	2.946049e-02	2.959339e-02	4.562237e-05
96            	5.729082e-03	2.953497e-02	3.013806e-02	4.378913e-05
97            	5.720040e-03	2.948980e-02	3.041375e-02	4.166774e-05
98            	5.680294e-03	2.930761e-02	3.045580e-02	3.974444e-05
99            	5.609715e-03	2.904656e-02	3.033491e-02	3.767596e-05
100           	5.521633e-03	2.889373e-02	3.014846e-02	3.600976e-05
101           	5.419854e-03	2.869861e-02	2.986782e-02	3.462301e-05
102           	5.276019e-03	2.895067e-02	2.943395e-02	3.356891e-05
103           	5.139300e-03	2.903840e-02	2.890351e-02	3.229536e-05
104           	4.997561e-03	2.887143e-02	2.833321e-02	3.088569e-05
105           	4.848485e-03	2.861805e-02	2.777710e-02	2.967163e-05
106           	4.671142e-03	2.830746e-02	2.722161e-02	2.842206e-05
107           	4.480765e-03	2.794339e-02	2.657789e-02	2.740518e-05
108           	4.289401e-03	2.748353e-02	2.578641e-02	2.616571e-05
109           	4.110427e-03	2.693185e-02	2.488105e-02	2.493167e-05
110           	3.952055e-03	2.635132e-02	2.401718e-02	2.392913e-05
111           	3.811329e-03	2.576346e-02	2.326139e-02	2.294855e-05
112           	3.670661e-03	2.516746e-02	2.268378e-02	2.224979e-05
113           	3.528012e-03	2.458647e-02	2.209473e-02	2.145941e-05
114           	3.358568e-03	2.388484e-02	2.115143e-02	2.092744e-05
115           	3.183254e-03	2.304337e-02	1.997797e-02	2.027483e-05
116           	3.030368e-03	2.222510e-02	1.868895e-02	1.933340e-05
117           	2.884838e-03	2.126038e-02	1.748192e-02	1.830843e-05
118           	2.737545e-03	2.023634e-02	1.638443e-02	1.727002e-05
119           	2.599357e-03	1.911894e-02	1.537477e-02	1.627544e-05
120           	2.473909e-03	1.780688e-02	1.447675e-02	1.557261e-05
121           	2.325177e-03	1.657760e-02	1.383878e-02	1.470100e-05
122           	2.190562e-03	1.535355e-02	1.288255e-02	1.396514e-05
123           	2.029961e-03	1.448898e-02	1.202869e-02	1.334986e-05
124           	1.877767e-03	1.363886e-02	1.120108e-02	1.282135e-05
125           	1.748213e-03	1.275870e-02	1.027501e-02	1.232129e-05
126           	1.640312e-03	1.161507e-02	9.458398e-03	1.168744e-05
127           	1.548018e-03	1.070403e-02	8.472813e-03	1.099217e-05
128           	1.462882e-03	9.968563e-03	7.688797e-03	1.018392e-05
129           	1.381299e-03	9.319594e-03	7.165836e-03	9.371599e-06
130           	1.311127e-03	8.684225e-03	6.817104e-03	8.586404e-06
131           	1.250604e-03	8.072718e-03	6.494270e-03	7.954461e-06
132           	1.201216e-03	7.487590e-03	6.155282e-03	7.471851e-06
133           	1.154325e-03	7.061614e-03	5.814324e-03	7.037519e-06
134           	1.103580e-03	6.672245e-03	5.452530e-03	6.626859e-06
135           	1.050485e-03	6.266106e-03	5.114553e-03	6.236222e-06
136           	9.989033e-04	5.864234e-03	4.788998e-03	5.851731e-06
137           	9.538089e-04	5.483968e-03	4.464776e-03	5.504188e-06
138           	9.178844e-04	5.154073e-03	4.148883e-03	5.119582e-06
139           	8.862620e-04	4.880514e-03	3.853986e-03	4.788316e-06
140           	8.529057e-04	4.640803e-03	3.596804e-03	4.460610e-06
141           	8.188525e-04	4.393189e-03	3.371522e-03	4.180991e-06
142           	7.863656e-04	4.176966e-03	3.198591e-03	3.948647e-06
143           	7.574375e-04	3.983235e-03	3.059027e-03	3.717356e-06
144           	7.318848e-04	3.803187e-03	2.932550e-03	3.508397e-06
145           	7.078526e-04	3.635626e-03	2.800960e-03	3.301427e-06
146           	6.816190e-04	3.463947e-03	2.660772e-03	3.116775e-06
147           	6.522827e-04	3.297697e-03	2.534397e-03	2.943988e-06
148           	6.235531e-04	3.148421e-03	2.439333e-03	2.790393e-06
149           	5.965901e-04	3.013283e-03	2.360730e-03	2.650981e-06
150           	5.715961e-04	2.885929e-03	2.277295e-03	2.526922e-06
151           	5.487572e-04	2.750902e-03	2.176226e-03	2.430693e-06
152           	5.277487e-04	2.609262e-03	2.060735e-03	2.350435e-06
153           	5.082074e-04	2.468594e-03	1.941171e-03	2.260076e-06
154           	4.899946e-04	2.336066e-03	1.820497e-03	2.163236e-06
155           	4.720203e-04	2.209558e-03	1.704656e-03	2.077027e-06
156           	4.544712e-04	2.097632e-03	1.605768e-03	1.995261e-06
157           	4.374602e-04	1.999342e-03	1.530617e-03	1.911147e-06
158           	4.216354e-04	1.914533e-03	1.477271e-03	1.828249e-06
159           	4.069773e-04	1.834837e-03	1.436815e-03	1.749252e-06
160           	3.938254e-04	1.756939e-03	1.398690e-03	1.667765e-06
161           	3.814607e-04	1.682759e-03	1.351147e-03	1.595049e-06
162           	3.690221e-04	1.615902e-03	1.295820e-03	1.534852e-06
163           	3.565042e-04	1.555929e-03	1.240313e-03	1.481025e-06
164           	3.442983e-04	1.500850e-03	1.193276e-03	1.433840e-06
165           	3.325320e-04	1.449774e-03	1.155568e-03	1.393135e-06
166           	3.210802e-04	1.403712e-03	1.126543e-03	1.352658e-06
167           	3.097266e-04	1.359564e-03	1.101877e-03	1.312838e-06
168           	2.982284e-04	1.314712e-03	1.074118e-03	1.275835e-06
169           	2.866173e-04	1.266556e-03	1.038860e-03	1.241232e-06
170           	2.748612e-04	1.216213e-03	9.976360e-04	1.207072e-06
171           	2.634175e-04	1.166502e-03	9.576500e-04	1.170934e-06
172           	2.526356e-04	1.119237e-03	9.227633e-04	1.135638e-06
173           	2.428633e-04	1.073614e-03	8.937413e-04	1.102648e-06
174           	2.339066e-04	1.028592e-03	8.699660e-04	1.071188e-06
175           	2.256884e-04	9.836580e-04	8.482802e-04	1.041330e-06
176           	2.182095e-04	9.416248e-04	8.263337e-04	1.011773e-06
177           	2.113751e-04	9.020732e-04	8.026297e-04	9.843080e-07
178           	2.038353e-04	8.426464e-04	7.485627e-04	9.825726e-07
179           	1.988608e-04	8.343273e-04	7.505265e-04	9.476936e-07
180           	1.939829e-04	8.186770e-04	7.477923e-04	9.193902e-07
181           	1.874008e-04	7.654120e-04	6.984349e-04	9.149132e-07
182           	1.815949e-04	7.267997e-04	6.612527e-04	9.102217e-07
183           	1.786008e-04	7.341852e-04	6.814040e-04	8.656421e-07
184           	1.726330e-04	6.941432e-04	6.438151e-04	8.606017e-07
185           	1.672861e-04	6.618565e-04	6.114806e-04	8.490133e-07
186           	1.646152e-04	6.691877e-04	6.275706e-04	8.065836e-07
187           	1.589906e-04	6.267616e-04	5.866435e-04	8.084809e-07
188           	1.538920e-04	5.918477e-04	5.502741e-04	8.015311e-07
189           	1.491713e-04	5.673828e-04	5.232641e-04	7.982583e-07
190           	1.448410e-04	5.513718e-04	5.051928e-04	7.938486e-07
191           	1.408971e-04	5.392887e-04	4.931181e-04	7.860212e-07
192           	1.371190e-04	5.268365e-04	4.837242e-04	7.741701e-07
193           	1.334253e-04	5.128221e-04	4.739552e-04	7.639510e-07
194           	1.296846e-04	4.979471e-04	4.623964e-04	7.548903e-07
195           	1.259730e-04	4.836340e-04	4.490594e-04	7.459102e-07
196           	1.223418e-04	4.707223e-04	4.346067e-04	7.359899e-07
197           	1.188102e-04	4.587618e-04	4.189181e-04	7.245809e-07
198           	1.154495e-04	4.465899e-04	4.022670e-04	7.114664e-07
199           	1.123022e-04	4.337306e-04	3.854050e-04	6.996965e-07
200           	1.093384e-04	4.206012e-04	3.695591e-04	6.877395e-07
201           	1.065144e-04	4.084098e-04	3.561494e-04	6.753410e-07
202           	1.038058e-04	3.978847e-04	3.451879e-04	6.652910e-07
203           	1.012541e-04	3.884252e-04	3.365417e-04	6.562182e-07
204           	9.881791e-05	3.788937e-04	3.290748e-04	6.466050e-07
205           	9.648585e-05	3.694713e-04	3.225686e-04	6.371532e-07
206           	9.427056e-05	3.596987e-04	3.169567e-04	6.287529e-07
207           	9.214889e-05	3.503389e-04	3.117981e-04	6.211327e-07
208           	9.013716e-05	3.413484e-04	3.067079e-04	6.144777e-07
209           	8.814820e-05	3.323037e-04	3.004545e-04	6.081862e-07
210           	8.624036e-05	3.235155e-04	2.936270e-04	6.019245e-07
211           	8.437157e-05	3.151822e-04	2.863372e-04	5.971553e-07
212           	8.251668e-05	3.072665e-04	2.789032e-04	5.909838e-07
213           	8.061782e-05	2.998763e-04	2.714763e-04	5.838683e-07
214           	7.872128e-05	2.926809e-04	2.638389e-04	5.779391e-07
215           	7.679537e-05	2.854473e-04	2.563459e-04	5.727629e-07
216           	7.486546e-05	2.781384e-04	2.493161e-04	5.674273e-07
217           	7.295617e-05	2.704850e-04	2.428169e-04	5.616209e-07
218           	7.103623e-05	2.625980e-04	2.366854e-04	5.562473e-07
219           	6.920440e-05	2.547403e-04	2.309407e-04	5.512783e-07
220           	6.742738e-05	2.467928e-04	2.252388e-04	5.456542e-07
221           	6.572590e-05	2.390011e-04	2.197652e-04	5.400732e-07
222           	6.409387e-05	2.312547e-04	2.144810e-04	5.351116e-07
223           	6.251966e-05	2.239337e-04	2.093712e-04	5.296318e-07
224           	6.101412e-05	2.170825e-04	2.045194e-04	5.247116e-07
225           	5.956350e-05	2.107574e-04	2.000052e-04	5.205676e-07
226           	5.816614e-05	2.048659e-04	1.957959e-04	5.170787e-07
227           	5.678688e-05	1.995622e-04	1.917505e-04	5.142997e-07
228           	5.543053e-05	1.946809e-04	1.879267e-04	5.123390e-07
229           	5.410302e-05	1.903005e-04	1.842340e-04	5.106474e-07
230           	5.282868e-05	1.864398e-04	1.807380e-04	5.098486e-07
231           	5.155648e-05	1.828124e-04	1.770841e-04	5.085580e-07
232           	5.032069e-05	1.797563e-04	1.734309e-04	5.077027e-07
233           	4.909313e-05	1.771736e-04	1.696872e-04	5.063376e-07
234           	4.792353e-05	1.747931e-04	1.660029e-04	5.041991e-07
235           	4.679424e-05	1.723726e-04	1.622969e-04	5.021418e-07
236           	4.567581e-05	1.700892e-04	1.588745e-04	4.996133e-07
237           	4.456880e-05	1.677965e-04	1.556996e-04	4.965184e-07
238           	4.352942e-05	1.656594e-04	1.529029e-04	4.940244e-07
239           	4.251502e-05	1.635957e-04	1.503238e-04	4.908822e-07
240           	4.152072e-05	1.613662e-04	1.479676e-04	4.870187e-07
241           	4.056391e-05	1.590981e-04	1.457228e-04	4.840567e-07
242           	3.965753e-05	1.568964e-04	1.436176e-04	4.816269e-07
243           	3.877043e-05	1.547421e-04	1.414926e-04	4.787844e-07
244           	3.792265e-05	1.525429e-04	1.394539e-04	4.762166e-07
245           	3.710904e-05	1.505779e-04	1.375766e-04	4.746044e-07
246           	3.631842e-05	1.486201e-04	1.357124e-04	4.722643e-07
247           	3.554256e-05	1.467341e-04	1.338538e-04	4.706264e-07
248           	3.477978e-05	1.450908e-04	1.320497e-04	4.701404e-07
249           	3.403678e-05	1.433064e-04	1.300537e-04	4.699733e-07
250           	3.331045e-05	1.415022e-04	1.281051e-04	4.698325e-07
251           	3.257705e-05	1.398545e-04	1.262489e-04	4.698142e-07
252           	3.184763e-05	1.380782e-04	1.242190e-04	4.691854e-07
253           	3.112189e-05	1.360491e-04	1.221637e-04	4.688619e-07
254           	3.039551e-05	1.335938e-04	1.197569e-04	4.676583e-07
255           	2.964192e-05	1.310034e-04	1.173635e-04	4.656996e-07
256           	2.890262e-05	1.284818e-04	1.149204e-04	4.633444e-07
257           	2.818276e-05	1.260521e-04	1.126088e-04	4.606508e-07
258           	2.746755e-05	1.236117e-04	1.104037e-04	4.586811e-07
259           	2.678224e-05	1.211828e-04	1.081641e-04	4.565417e-07
260           	2.613133e-05	1.187822e-04	1.060957e-04	4.541094e-07
261           	2.550901e-05	1.163459e-04	1.041594e-04	4.520290e-07
262           	2.491021e-05	1.137255e-04	1.019911e-04	4.500948e-07
263           	2.434686e-05	1.112853e-04	1.000162e-04	4.481123e-07
264           	2.381349e-05	1.087465e-04	9.801542e-05	4.467458e-07
265           	2.331342e-05	1.064270e-04	9.618061e-05	4.447101e-07
266           	2.285291e-05	1.044284e-04	9.451241e-05	4.427740e-07
267           	2.241466e-05	1.025482e-04	9.302010e-05	4.416069e-07
268           	2.199459e-05	1.008918e-04	9.160163e-05	4.412749e-07
269           	2.158694e-05	9.928081e-05	9.005897e-05	4.403725e-07
270           	2.120436e-05	9.782660e-05	8.872634e-05	4.394410e-07
271           	2.085056e-05	9.658934e-05	8.746508e-05	4.386440e-07
272           	2.052036e-05	9.559449e-05	8.616473e-05	4.383098e-07
273           	2.020943e-05	9.484150e-05	8.497474e-05	4.381857e-07
274           	1.989604e-05	9.401747e-05	8.360872e-05	4.375712e-07
275           	1.960601e-05	9.326192e-05	8.235592e-05	4.375022e-07
276           	1.933106e-05	9.255462e-05	8.104554e-05	4.375789e-07
277           	1.906111e-05	9.171732e-05	7.964304e-05	4.368341e-07
278           	1.880590e-05	9.103696e-05	7.826756e-05	4.364044e-07
279           	1.856489e-05	9.026374e-05	7.700547e-05	4.352148e-07
280           	1.833963e-05	8.948044e-05	7.576329e-05	4.344645e-07
281           	1.812369e-05	8.867532e-05	7.450351e-05	4.331742e-07
282           	1.792605e-05	8.786351e-05	7.337059e-05	4.316465e-07
283           	1.775971e-05	8.714981e-05	7.239182e-05	4.300910e-07
284           	1.759377e-05	8.641024e-05	7.147425e-05	4.284126e-07
285           	1.744574e-05	8.568787e-05	7.073858e-05	4.262314e-07
286           	1.732360e-05	8.505289e-05	7.013433e-05	4.251278e-07
287           	1.720180e-05	8.439595e-05	6.951174e-05	4.241887e-07
288           	1.707867e-05	8.375565e-05	6.901298e-05	4.233054e-07
289           	1.695343e-05	8.321033e-05	6.848199e-05	4.227710e-07
290           	1.682984e-05	8.265767e-05	6.808480e-05	4.224553e-07
291           	1.670386e-05	8.207515e-05	6.761898e-05	4.219693e-07
292           	1.655660e-05	8.133928e-05	6.701662e-05	4.215052e-07
293           	1.641450e-05	8.041844e-05	6.626259e-05	4.209544e-07
294           	1.625221e-05	7.935026e-05	6.540315e-05	4.197807e-07
295           	1.608227e-05	7.821099e-05	6.448943e-05	4.187056e-07
296           	1.590459e-05	7.708929e-05	6.339195e-05	4.174404e-07
297           	1.572440e-05	7.594222e-05	6.227291e-05	4.158641e-07
298           	1.555159e-05	7.488455e-05	6.117790e-05	4.152028e-07
299           	1.538924e-05	7.375041e-05	6.014421e-05	4.147976e-07
300           	1.522871e-05	7.266043e-05	5.904054e-05	4.138868e-07
301           	1.507663e-05	7.153290e-05	5.812252e-05	4.128537e-07
302           	1.492477e-05	7.040230e-05	5.723688e-05	4.120585e-07
303           	1.477264e-05	6.921988e-05	5.644847e-05	4.108492e-07
304           	1.462655e-05	6.814467e-05	5.577060e-05	4.095285e-07
305           	1.448369e-05	6.725065e-05	5.517004e-05	4.088075e-07
306           	1.435882e-05	6.644006e-05	5.461381e-05	4.085410e-07
307           	1.424106e-05	6.570753e-05	5.422347e-05	4.079237e-07
308           	1.412405e-05	6.504193e-05	5.372099e-05	4.073283e-07
309           	1.400702e-05	6.434455e-05	5.318831e-05	4.065064e-07
310           	1.389545e-05	6.385544e-05	5.272529e-05	4.059418e-07
311           	1.378690e-05	6.352501e-05	5.223020e-05	4.056706e-07
312           	1.366593e-05	6.324887e-05	5.165606e-05	4.050401e-07
313           	1.357005e-05	6.304208e-05	5.115154e-05	4.046455e-07
314           	1.346601e-05	6.276886e-05	5.060461e-05	4.040917e-07
315           	1.336985e-05	6.257368e-05	5.011867e-05	4.037558e-07
316           	1.327522e-05	6.225353e-05	4.954878e-05	4.032205e-07
317           	1.319788e-05	6.192845e-05	4.907750e-05	4.027214e-07
318           	1.311725e-05	6.154103e-05	4.858357e-05	4.027608e-07
319           	1.304569e-05	6.114061e-05	4.809370e-05	4.021069e-07
320           	1.298059e-05	6.082983e-05	4.765875e-05	4.013114e-07
321           	1.291653e-05	6.045282e-05	4.730765e-05	4.002736e-07
322           	1.285802e-05	6.015253e-05	4.699754e-05	3.994834e-07
323           	1.280837e-05	5.984756e-05	4.675888e-05	3.986977e-07
324           	1.275380e-05	5.943093e-05	4.651597e-05	3.970937e-07
325           	1.270256e-05	5.912489e-05	4.632657e-05	3.956388e-07
326           	1.265741e-05	5.873186e-05	4.613454e-05	3.950026e-07
327           	1.260577e-05	5.841877e-05	4.599961e-05	3.949032e-07
328           	1.254789e-05	5.805633e-05	4.582495e-05	3.946486e-07
329           	1.250081e-05	5.771619e-05	4.569231e-05	3.945679e-07
330           	1.244295e-05	5.737655e-05	4.549793e-05	3.941491e-07
331           	1.238188e-05	5.702540e-05	4.524819e-05	3.938153e-07
332           	1.231670e-05	5.659608e-05	4.493516e-05	3.931842e-07
333           	1.224368e-05	5.605521e-05	4.457719e-05	3.928898e-07
334           	1.217571e-05	5.548352e-05	4.414044e-05	3.924882e-07
335           	1.210598e-05	5.496988e-05	4.370788e-05	3.916822e-07
336           	1.202457e-05	5.439235e-05	4.323356e-05	3.905421e-07
337           	1.193865e-05	5.385147e-05	4.280918e-05	3.896940e-07
338           	1.185469e-05	5.329313e-05	4.230220e-05	3.890861e-07
339           	1.176810e-05	5.270820e-05	4.180686e-05	3.883751e-07
340           	1.168125e-05	5.206464e-05	4.133050e-05	3.881038e-07
341           	1.160055e-05	5.143380e-05	4.084481e-05	3.877784e-07
342           	1.151889e-05	5.076100e-05	4.038594e-05	3.875861e-07
343           	1.144022e-05	5.018968e-05	4.005059e-05	3.872683e-07
344           	1.135723e-05	4.965583e-05	3.969663e-05	3.866170e-07
345           	1.128276e-05	4.918466e-05	3.941980e-05	3.861142e-07
346           	1.120580e-05	4.871859e-05	3.917724e-05	3.858338e-07
347           	1.113044e-05	4.840494e-05	3.897969e-05	3.853712e-07
348           	1.105984e-05	4.808444e-05	3.876231e-05	3.849166e-07
349           	1.098981e-05	4.784569e-05	3.858325e-05	3.844508e-07
350           	1.092115e-05	4.768757e-05	3.837586e-05	3.843403e-07
351           	1.085150e-05	4.756843e-05	3.819744e-05	3.840022e-07
352           	1.078777e-05	4.742339e-05	3.794367e-05	3.835929e-07
353           	1.073052e-05	4.731685e-05	3.781452e-05	3.836664e-07
354           	1.067554e-05	4.711430e-05	3.759026e-05	3.831841e-07
355           	1.063294e-05	4.696517e-05	3.742554e-05	3.827348e-07
356           	1.060556e-05	4.675545e-05	3.718023e-05	3.824235e-07
357           	1.057343e-05	4.653251e-05	3.694104e-05	3.818110e-07
358           	1.054504e-05	4.634505e-05	3.667038e-05	3.811661e-07
359           	1.054160e-05	4.614054e-05	3.640288e-05	3.802929e-07
360           	1.051685e-05	4.590252e-05	3.616137e-05	3.794921e-07
361           	1.048968e-05	4.569070e-05	3.596996e-05	3.785293e-07
362           	1.046523e-05	4.543084e-05	3.578502e-05	3.774551e-07
363           	1.044410e-05	4.520623e-05	3.567028e-05	3.766569e-07
364           	1.042383e-05	4.494318e-05	3.548213e-05	3.761255e-07
365           	1.039703e-05	4.468235e-05	3.534538e-05	3.758155e-07
366           	1.036690e-05	4.443494e-05	3.518437e-05	3.759317e-07
367           	1.033213e-05	4.423081e-05	3.503894e-05	3.756696e-07
368           	1.030019e-05	4.407510e-05	3.496483e-05	3.754531e-07
369           	1.025454e-05	4.390502e-05	3.481334e-05	3.750602e-07
370           	1.020968e-05	4.363757e-05	3.460561e-05	3.747693e-07
371           	1.016436e-05	4.341397e-05	3.443573e-05	3.747425e-07
372           	1.011333e-05	4.304590e-05	3.419337e-05	3.742771e-07
373           	1.006899e-05	4.272908e-05	3.395807e-05	3.739142e-07
374           	1.001839e-05	4.232241e-05	3.368382e-05	3.733348e-07
375           	9.961060e-06	4.191493e-05	3.342291e-05	3.730121e-07
376           	9.901124e-06	4.149394e-05	3.312401e-05	3.725276e-07
377           	9.840181e-06	4.107626e-05	3.281827e-05	3.718788e-07
378           	9.779640e-06	4.060865e-05	3.251403e-05	3.715601e-07
379           	9.712546e-06	4.014765e-05	3.219022e-05	3.708501e-07
380           	9.647090e-06	3.968613e-05	3.186262e-05	3.706500e-07
381           	9.581916e-06	3.928758e-05	3.159806e-05	3.703647e-07
382           	9.514749e-06	3.889882e-05	3.134513e-05	3.699728e-07
383           	9.453268e-06	3.858030e-05	3.117997e-05	3.696539e-07
384           	9.389554e-06	3.824104e-05	3.104526e-05	3.694527e-07
385           	9.324885e-06	3.802449e-05	3.096087e-05	3.692661e-07
386           	9.254373e-06	3.770552e-05	3.080677e-05	3.691670e-07
387           	9.193397e-06	3.750226e-05	3.066730e-05	3.689057e-07
388           	9.119032e-06	3.732945e-05	3.046223e-05	3.687975e-07
389           	9.055273e-06	3.715889e-05	3.026155e-05	3.681684e-07
390           	8.997401e-06	3.692883e-05	3.000904e-05	3.678278e-07
391           	8.969198e-06	3.684947e-05	2.982582e-05	3.675946e-07
392           	8.920834e-06	3.672470e-05	2.964363e-05	3.673053e-07
393           	8.879463e-06	3.665091e-05	2.950050e-05	3.668965e-07
394           	8.842869e-06	3.648245e-05	2.930738e-05	3.664903e-07
395           	8.811017e-06	3.633620e-05	2.909047e-05	3.659537e-07
396           	8.780420e-06	3.617527e-05	2.887942e-05	3.654865e-07
397           	8.774777e-06	3.605230e-05	2.867715e-05	3.648860e-07
398           	8.747444e-06	3.584647e-05	2.846395e-05	3.644419e-07
399           	8.721585e-06	3.566827e-05	2.829197e-05	3.636970e-07
400           	8.692856e-06	3.546699e-05	2.810838e-05	3.630761e-07
401           	8.666371e-06	3.525833e-05	2.793923e-05	3.620852e-07
402           	8.644542e-06	3.505361e-05	2.777317e-05	3.615409e-07
403           	8.625313e-06	3.484029e-05	2.763381e-05	3.610730e-07
404           	8.609296e-06	3.466476e-05	2.746801e-05	3.607950e-07
405           	8.577388e-06	3.449529e-05	2.733184e-05	3.604820e-07
406           	8.543228e-06	3.435010e-05	2.721379e-05	3.602677e-07
407           	8.505424e-06	3.425772e-05	2.711759e-05	3.598171e-07
408           	8.469840e-06	3.413139e-05	2.700189e-05	3.596750e-07
409           	8.433892e-06	3.400965e-05	2.689322e-05	3.594902e-07
410           	8.388877e-06	3.381673e-05	2.676046e-05	3.593884e-07
411           	8.346531e-06	3.366845e-05	2.662762e-05	3.591751e-07
412           	8.304895e-06	3.344836e-05	2.647037e-05	3.588857e-07
413           	8.264909e-06	3.321272e-05	2.633497e-05	3.584320e-07
414           	8.216915e-06	3.291836e-05	2.616785e-05	3.578131e-07
415           	8.169175e-06	3.263089e-05	2.596879e-05	3.573633e-07
416           	8.120769e-06	3.231012e-05	2.574752e-05	3.571731e-07
417           	8.060291e-06	3.198571e-05	2.553648e-05	3.569351e-07
418           	8.011250e-06	3.163271e-05	2.527280e-05	3.567402e-07
419           	7.966082e-06	3.132563e-05	2.505688e-05	3.566513e-07
420           	7.926437e-06	3.105711e-05	2.485107e-05	3.563911e-07
421           	7.888775e-06	3.083552e-05	2.468968e-05	3.561328e-07
422           	7.849045e-06	3.058689e-05	2.451996e-05	3.560440e-07
423           	7.807352e-06	3.042223e-05	2.440598e-05	3.560428e-07
424           	7.759123e-06	3.022026e-05	2.428521e-05	3.557974e-07
425           	7.712209e-06	3.006845e-05	2.420466e-05	3.555267e-07
426           	7.666195e-06	2.992176e-05	2.411628e-05	3.553616e-07
427           	7.624592e-06	2.982624e-05	2.405765e-05	3.550192e-07
428           	7.584749e-06	2.971201e-05	2.395011e-05	3.545627e-07
429           	7.548043e-06	2.962869e-05	2.382528e-05	3.542180e-07
430           	7.512280e-06	2.953360e-05	2.370149e-05	3.540375e-07
431           	7.478715e-06	2.946802e-05	2.355620e-05	3.536301e-07
432           	7.450757e-06	2.931939e-05	2.343391e-05	3.529655e-07
433           	7.423659e-06	2.918363e-05	2.327108e-05	3.527650e-07
434           	7.400965e-06	2.901037e-05	2.311356e-05	3.525718e-07
435           	7.386775e-06	2.887267e-05	2.293191e-05	3.523330e-07
436           	7.373474e-06	2.865578e-05	2.274168e-05	3.519714e-07
437           	7.360960e-06	2.848548e-05	2.252751e-05	3.514255e-07
438           	7.350764e-06	2.833286e-05	2.236058e-05	3.509853e-07
439           	7.335941e-06	2.820219e-05	2.225759e-05	3.501515e-07
440           	7.318854e-06	2.807401e-05	2.211971e-05	3.497153e-07
441           	7.302651e-06	2.799055e-05	2.198834e-05	3.494605e-07
442           	7.290009e-06	2.791729e-05	2.195955e-05	3.495322e-07
443           	7.275943e-06	2.792610e-05	2.192395e-05	3.495691e-07
444           	7.253842e-06	2.790392e-05	2.187009e-05	3.492305e-07
445           	7.229227e-06	2.793135e-05	2.185863e-05	3.489272e-07
446           	7.201182e-06	2.792192e-05	2.184543e-05	3.486294e-07