# y+ ()       
# Time        	patch         	min           	max           	average       
0             	nozzle_int	0.000000e+00	0.000000e+00	0.000000e+00
0             	nozzle_ext	0.000000e+00	0.000000e+00	0.000000e+00
0             	collector_int	0.000000e+00	0.000000e+00	0.000000e+00
0             	collector_ext	0.000000e+00	0.000000e+00	0.000000e+00
0             	diffuser_int	0.000000e+00	0.000000e+00	0.000000e+00
0             	diffuser_ext	0.000000e+00	0.000000e+00	0.000000e+00
10            	nozzle_int	3.247632e+00	4.515524e+02	7.997553e+01
10            	nozzle_ext	4.262365e-04	1.039397e+02	2.198980e+00
10            	collector_int	3.886177e+00	3.196280e+02	9.175832e+01
10            	collector_ext	2.475069e-02	6.840009e+01	5.289793e+00
10            	diffuser_int	6.709561e+00	3.575266e+02	1.260554e+02
10            	diffuser_ext	4.673937e-03	8.964259e+01	2.246850e+00
20            	nozzle_int	2.252426e+00	4.123497e+02	6.092178e+01
20            	nozzle_ext	1.374910e-03	1.013148e+02	1.260392e+00
20            	collector_int	2.568275e+00	2.950249e+02	7.212547e+01
20            	collector_ext	8.935266e-03	6.030211e+01	5.335780e+00
20            	diffuser_int	5.412477e+00	4.336166e+02	1.000462e+02
20            	diffuser_ext	5.818880e-03	8.124215e+01	2.043449e+00
30            	nozzle_int	2.787534e+00	4.318107e+02	5.371080e+01
30            	nozzle_ext	5.459649e-03	5.616271e+01	1.100876e+00
30            	collector_int	2.456921e+00	2.673142e+02	6.242584e+01
30            	collector_ext	2.676473e-02	5.959884e+01	4.974801e+00
30            	diffuser_int	4.621210e+00	3.503072e+02	9.157678e+01
30            	diffuser_ext	2.718943e-03	7.945857e+01	2.137149e+00
40            	nozzle_int	3.365290e+00	4.391209e+02	4.981994e+01
40            	nozzle_ext	9.910723e-04	6.896742e+01	1.016208e+00
40            	collector_int	3.377624e+00	2.600317e+02	6.652235e+01
40            	collector_ext	2.091858e-02	3.996051e+01	4.547713e+00
40            	diffuser_int	4.151731e+00	2.884287e+02	8.350372e+01
40            	diffuser_ext	3.186151e-03	7.146943e+01	2.426956e+00
50            	nozzle_int	3.106586e+00	4.448860e+02	4.808284e+01
50            	nozzle_ext	2.105464e-03	6.454261e+01	9.388546e-01
50            	collector_int	4.397137e+00	2.246390e+02	9.185759e+01
50            	collector_ext	5.308892e-03	5.206746e+01	4.344055e+00
50            	diffuser_int	3.605567e+00	2.522986e+02	7.630659e+01
50            	diffuser_ext	3.801913e-03	6.211919e+01	2.499735e+00
60            	nozzle_int	3.253765e+00	4.503538e+02	4.736784e+01
60            	nozzle_ext	3.879592e-03	6.273179e+01	8.846557e-01
60            	collector_int	6.237068e+00	2.549102e+02	1.110788e+02
60            	collector_ext	2.331238e-02	6.356357e+01	4.454126e+00
60            	diffuser_int	3.435523e+00	2.238233e+02	6.804710e+01
60            	diffuser_ext	3.006745e-03	8.104685e+01	3.725231e+00
70            	nozzle_int	3.025900e+00	4.527003e+02	4.718481e+01
70            	nozzle_ext	2.648237e-03	6.133490e+01	8.355758e-01
70            	collector_int	2.420461e+00	2.206683e+02	8.852188e+01
70            	collector_ext	1.541561e-02	6.087962e+01	4.715788e+00
70            	diffuser_int	3.958495e+00	2.324434e+02	6.898563e+01
70            	diffuser_ext	5.791276e-03	8.778195e+01	3.692520e+00
80            	nozzle_int	2.533933e+00	4.548482e+02	4.724751e+01
80            	nozzle_ext	1.453609e-03	6.125209e+01	7.985494e-01
80            	collector_int	3.851934e+00	1.988616e+02	8.587055e+01
80            	collector_ext	1.045963e-02	5.510620e+01	6.031918e+00
80            	diffuser_int	3.077873e+00	1.821071e+02	6.884110e+01
80            	diffuser_ext	7.725286e-03	8.643139e+01	4.018573e+00
90            	nozzle_int	2.177054e+00	4.568855e+02	4.735754e+01
90            	nozzle_ext	1.661571e-03	6.064854e+01	7.739014e-01
90            	collector_int	3.486415e+00	1.543639e+02	7.541043e+01
90            	collector_ext	4.933910e-02	5.595994e+01	6.221172e+00
90            	diffuser_int	2.707159e+00	1.700263e+02	6.652040e+01
90            	diffuser_ext	9.921568e-03	8.456333e+01	4.143320e+00
100           	nozzle_int	1.907646e+00	4.598462e+02	4.747676e+01
100           	nozzle_ext	2.360071e-03	5.993619e+01	7.428701e-01
100           	collector_int	3.951203e+00	1.438652e+02	6.464039e+01
100           	collector_ext	2.147378e-02	5.965596e+01	6.183147e+00
100           	diffuser_int	3.420097e+00	1.506934e+02	6.507366e+01
100           	diffuser_ext	1.403887e-03	8.862448e+01	4.346492e+00
110           	nozzle_int	1.751708e+00	4.640398e+02	4.758031e+01
110           	nozzle_ext	3.642367e-04	5.990845e+01	6.973508e-01
110           	collector_int	3.138084e+00	1.431828e+02	5.694816e+01
110           	collector_ext	1.638161e-02	5.456449e+01	6.262688e+00
110           	diffuser_int	2.409105e+00	1.651952e+02	6.387159e+01
110           	diffuser_ext	1.266767e-02	8.420353e+01	4.399271e+00
120           	nozzle_int	1.715470e+00	4.672592e+02	4.765611e+01
120           	nozzle_ext	2.844989e-04	6.020253e+01	6.607719e-01
120           	collector_int	3.163910e+00	2.043581e+02	5.524554e+01
120           	collector_ext	1.262671e-02	6.946932e+01	5.800806e+00
120           	diffuser_int	1.899244e+00	1.712163e+02	6.070029e+01
120           	diffuser_ext	1.422341e-03	8.060445e+01	4.170638e+00
130           	nozzle_int	1.732960e+00	4.686832e+02	4.772266e+01
130           	nozzle_ext	2.783484e-04	6.079147e+01	6.342400e-01
130           	collector_int	2.470495e+00	2.040018e+02	6.279059e+01
130           	collector_ext	5.816160e-02	7.120800e+01	5.452904e+00
130           	diffuser_int	2.059277e+00	1.613354e+02	5.713758e+01
130           	diffuser_ext	9.111772e-03	7.216047e+01	4.001121e+00
140           	nozzle_int	1.770032e+00	4.675088e+02	4.778015e+01
140           	nozzle_ext	1.723236e-03	6.122812e+01	6.055844e-01
140           	collector_int	2.626613e+00	1.355217e+02	6.217032e+01
140           	collector_ext	7.028725e-02	5.419290e+01	5.292114e+00
140           	diffuser_int	2.158656e+00	1.300082e+02	5.447014e+01
140           	diffuser_ext	1.307964e-02	6.944136e+01	3.843939e+00
150           	nozzle_int	1.797383e+00	4.668789e+02	4.783142e+01
150           	nozzle_ext	1.007619e-04	6.133505e+01	5.822519e-01
150           	collector_int	2.822893e+00	1.479448e+02	6.981990e+01
150           	collector_ext	2.260217e-02	4.880123e+01	5.314795e+00
150           	diffuser_int	2.685598e+00	1.327235e+02	5.008913e+01
150           	diffuser_ext	9.768300e-03	6.612195e+01	3.616248e+00
160           	nozzle_int	1.793894e+00	4.672780e+02	4.787384e+01
160           	nozzle_ext	5.957813e-04	6.158195e+01	5.658048e-01
160           	collector_int	2.717702e+00	1.442977e+02	7.061550e+01
160           	collector_ext	3.006740e-03	4.869038e+01	5.279725e+00
160           	diffuser_int	2.583891e+00	1.408630e+02	4.654295e+01
160           	diffuser_ext	1.780843e-02	7.049770e+01	3.528345e+00
170           	nozzle_int	1.785232e+00	4.677329e+02	4.790627e+01
170           	nozzle_ext	2.032321e-04	6.204312e+01	5.591072e-01
170           	collector_int	3.024560e+00	1.474872e+02	7.446546e+01
170           	collector_ext	7.626785e-03	5.269153e+01	5.296549e+00
170           	diffuser_int	2.402037e+00	1.533862e+02	4.635324e+01
170           	diffuser_ext	2.450295e-03	7.119585e+01	3.498395e+00
180           	nozzle_int	1.787066e+00	4.678189e+02	4.792749e+01
180           	nozzle_ext	2.205730e-04	6.179383e+01	5.549441e-01
180           	collector_int	3.082183e+00	1.497211e+02	7.688585e+01
180           	collector_ext	2.284774e-02	5.416106e+01	5.421123e+00
180           	diffuser_int	2.958443e+00	1.564141e+02	4.587941e+01
180           	diffuser_ext	1.048063e-02	7.460551e+01	3.459615e+00
190           	nozzle_int	1.794208e+00	4.676611e+02	4.794168e+01
190           	nozzle_ext	5.699055e-04	6.107452e+01	5.518846e-01
190           	collector_int	3.318853e+00	1.485411e+02	7.754556e+01
190           	collector_ext	3.395881e-02	5.343809e+01	5.581052e+00
190           	diffuser_int	2.942633e+00	1.467422e+02	4.376149e+01
190           	diffuser_ext	6.765695e-03	7.497182e+01	3.485373e+00
200           	nozzle_int	1.801358e+00	4.673910e+02	4.795354e+01
200           	nozzle_ext	7.880488e-04	6.085501e+01	5.491248e-01
200           	collector_int	3.709855e+00	1.504255e+02	7.922783e+01
200           	collector_ext	8.018178e-03	5.436868e+01	5.605485e+00
200           	diffuser_int	2.454666e+00	1.499078e+02	4.350086e+01
200           	diffuser_ext	5.129322e-03	7.540785e+01	3.514031e+00
210           	nozzle_int	1.811892e+00	4.671011e+02	4.796509e+01
210           	nozzle_ext	6.239154e-04	6.114936e+01	5.476979e-01
210           	collector_int	3.868725e+00	1.525414e+02	8.042671e+01
210           	collector_ext	1.835274e-02	5.395094e+01	5.664254e+00
210           	diffuser_int	2.014035e+00	1.495511e+02	4.533064e+01
210           	diffuser_ext	5.282436e-03	7.613683e+01	3.618914e+00
220           	nozzle_int	1.828209e+00	4.668608e+02	4.797757e+01
220           	nozzle_ext	3.646397e-04	6.130389e+01	5.474131e-01
220           	collector_int	4.345024e+00	1.537230e+02	8.076678e+01
220           	collector_ext	4.215543e-02	5.417528e+01	5.802951e+00
220           	diffuser_int	1.951519e+00	1.453771e+02	4.774498e+01
220           	diffuser_ext	6.026426e-03	7.617324e+01	3.587608e+00
230           	nozzle_int	1.848170e+00	4.667855e+02	4.799137e+01
230           	nozzle_ext	3.421011e-04	6.116462e+01	5.479822e-01
230           	collector_int	3.598310e+00	1.544456e+02	8.161386e+01
230           	collector_ext	1.567869e-02	5.478879e+01	5.869386e+00
230           	diffuser_int	1.383857e+00	1.431248e+02	4.874748e+01
230           	diffuser_ext	6.901454e-03	7.669366e+01	3.531742e+00
240           	nozzle_int	1.866772e+00	4.669174e+02	4.800587e+01
240           	nozzle_ext	4.186870e-04	6.094175e+01	5.487768e-01
240           	collector_int	3.625266e+00	1.549621e+02	8.258718e+01
240           	collector_ext	2.476047e-02	5.495147e+01	6.076787e+00
240           	diffuser_int	1.624518e+00	1.416578e+02	4.960540e+01
240           	diffuser_ext	4.107434e-03	7.688459e+01	3.437925e+00
250           	nozzle_int	1.884624e+00	4.672026e+02	4.802212e+01
250           	nozzle_ext	3.149854e-04	6.077893e+01	5.497041e-01
250           	collector_int	4.449612e+00	1.545552e+02	8.307359e+01
250           	collector_ext	4.207786e-02	5.526604e+01	6.046770e+00
250           	diffuser_int	1.769380e+00	1.421663e+02	5.088126e+01
250           	diffuser_ext	1.184941e-02	7.730084e+01	3.392159e+00
260           	nozzle_int	1.901329e+00	4.675661e+02	4.804033e+01
260           	nozzle_ext	8.962142e-04	6.069470e+01	5.504788e-01
260           	collector_int	4.423051e+00	1.541906e+02	8.329689e+01
260           	collector_ext	2.606770e-02	5.540502e+01	5.971115e+00
260           	diffuser_int	2.239202e+00	1.428647e+02	5.204632e+01
260           	diffuser_ext	5.519486e-03	7.770926e+01	3.391307e+00
270           	nozzle_int	1.917081e+00	4.679431e+02	4.805985e+01
270           	nozzle_ext	4.957010e-04	6.065159e+01	5.513583e-01
270           	collector_int	4.960350e+00	1.549324e+02	8.359646e+01
270           	collector_ext	8.963608e-03	5.527786e+01	5.989019e+00
270           	diffuser_int	1.250247e+00	1.421405e+02	5.303916e+01
270           	diffuser_ext	4.776470e-03	7.776404e+01	3.395869e+00
280           	nozzle_int	1.932599e+00	4.682930e+02	4.807951e+01
280           	nozzle_ext	4.452103e-05	6.063537e+01	5.523017e-01
280           	collector_int	5.301381e+00	1.563752e+02	8.391005e+01
280           	collector_ext	1.445475e-02	5.516237e+01	6.036536e+00
280           	diffuser_int	1.877086e+00	1.414845e+02	5.395851e+01
280           	diffuser_ext	2.742172e-03	7.773720e+01	3.417886e+00
290           	nozzle_int	1.948614e+00	4.685924e+02	4.809805e+01
290           	nozzle_ext	5.597680e-04	6.063637e+01	5.535313e-01
290           	collector_int	4.563845e+00	1.574501e+02	8.410864e+01
290           	collector_ext	3.031670e-02	5.509135e+01	6.048331e+00
290           	diffuser_int	1.922623e+00	1.414743e+02	5.479959e+01
290           	diffuser_ext	9.565630e-03	7.775079e+01	3.477719e+00
300           	nozzle_int	1.964877e+00	4.688335e+02	4.811439e+01
300           	nozzle_ext	6.246962e-04	6.065038e+01	5.548663e-01
300           	collector_int	4.796952e+00	1.581624e+02	8.425671e+01
300           	collector_ext	7.469398e-02	5.498066e+01	6.037167e+00
300           	diffuser_int	1.440737e+00	1.418791e+02	5.554087e+01
300           	diffuser_ext	6.310533e-03	7.772213e+01	3.566286e+00
310           	nozzle_int	1.981249e+00	4.690180e+02	4.812805e+01
310           	nozzle_ext	6.677433e-04	6.067176e+01	5.562553e-01
310           	collector_int	5.652100e+00	1.588371e+02	8.441842e+01
310           	collector_ext	3.033705e-02	5.492201e+01	6.039208e+00
310           	diffuser_int	1.934456e+00	1.419921e+02	5.619717e+01
310           	diffuser_ext	4.598282e-03	7.770786e+01	3.624126e+00
320           	nozzle_int	1.997970e+00	4.691508e+02	4.813900e+01
320           	nozzle_ext	9.806256e-04	6.069196e+01	5.577160e-01
320           	collector_int	5.736213e+00	1.595923e+02	8.455732e+01
320           	collector_ext	9.039107e-03	5.494062e+01	6.027328e+00
320           	diffuser_int	2.102970e+00	1.419588e+02	5.675600e+01
320           	diffuser_ext	9.287198e-03	7.774856e+01	3.675594e+00
330           	nozzle_int	2.015080e+00	4.692412e+02	4.814769e+01
330           	nozzle_ext	4.709373e-04	6.070607e+01	5.591483e-01
330           	collector_int	5.665133e+00	1.602566e+02	8.465917e+01
330           	collector_ext	3.284717e-02	5.494127e+01	6.017632e+00
330           	diffuser_int	2.202863e+00	1.419505e+02	5.724792e+01
330           	diffuser_ext	4.568084e-03	7.779070e+01	3.715487e+00
340           	nozzle_int	2.032626e+00	4.692985e+02	4.815446e+01
340           	nozzle_ext	6.042851e-04	6.069889e+01	5.605046e-01
340           	collector_int	5.983433e+00	1.607284e+02	8.474682e+01
340           	collector_ext	2.954308e-02	5.491412e+01	6.015356e+00
340           	diffuser_int	1.528440e+00	1.418664e+02	5.767308e+01
340           	diffuser_ext	4.047685e-03	7.779287e+01	3.737072e+00
350           	nozzle_int	2.050377e+00	4.693329e+02	4.815972e+01
350           	nozzle_ext	2.586957e-04	6.074404e+01	5.617280e-01
350           	collector_int	6.425640e+00	1.611389e+02	8.483699e+01
350           	collector_ext	6.369968e-02	5.490409e+01	6.011751e+00
350           	diffuser_int	1.146203e+00	1.416553e+02	5.802474e+01
350           	diffuser_ext	1.412211e-02	7.778005e+01	3.749650e+00
360           	nozzle_int	2.068431e+00	4.693522e+02	4.816377e+01
360           	nozzle_ext	7.943954e-04	6.076293e+01	5.629300e-01
360           	collector_int	6.576454e+00	1.615714e+02	8.492623e+01
360           	collector_ext	1.998158e-02	5.490837e+01	6.014114e+00
360           	diffuser_int	5.472301e-01	1.414552e+02	5.831276e+01
360           	diffuser_ext	2.343545e-02	7.778333e+01	3.763297e+00
370           	nozzle_int	2.086509e+00	4.693619e+02	4.816682e+01
370           	nozzle_ext	7.443313e-04	6.078982e+01	5.640811e-01
370           	collector_int	6.668007e+00	1.620116e+02	8.500742e+01
370           	collector_ext	3.762912e-03	5.490308e+01	6.021675e+00
370           	diffuser_int	1.499982e+00	1.413297e+02	5.855285e+01
370           	diffuser_ext	7.340950e-03	7.779554e+01	3.789859e+00
380           	nozzle_int	2.104428e+00	4.693667e+02	4.816916e+01
380           	nozzle_ext	4.247306e-04	6.079979e+01	5.650572e-01
380           	collector_int	6.743512e+00	1.624163e+02	8.508322e+01
380           	collector_ext	4.220352e-02	5.488427e+01	6.027254e+00
380           	diffuser_int	1.975236e+00	1.412302e+02	5.875988e+01
380           	diffuser_ext	1.692351e-02	7.780507e+01	3.810518e+00
390           	nozzle_int	2.122511e+00	4.693683e+02	4.817085e+01
390           	nozzle_ext	2.329285e-04	6.081431e+01	5.659876e-01
390           	collector_int	6.809466e+00	1.627560e+02	8.515758e+01
390           	collector_ext	6.099632e-03	5.486518e+01	6.024275e+00
390           	diffuser_int	1.971439e+00	1.411027e+02	5.894532e+01
390           	diffuser_ext	7.390044e-03	7.781549e+01	3.812849e+00
400           	nozzle_int	2.140724e+00	4.693687e+02	4.817206e+01
400           	nozzle_ext	5.618402e-04	6.083638e+01	5.669425e-01
400           	collector_int	6.871405e+00	1.630759e+02	8.523098e+01
400           	collector_ext	5.797490e-02	5.485247e+01	6.014959e+00
400           	diffuser_int	1.935266e+00	1.409479e+02	5.911501e+01
400           	diffuser_ext	4.683169e-03	7.783335e+01	3.809785e+00
410           	nozzle_int	2.159485e+00	4.693687e+02	4.817291e+01
410           	nozzle_ext	7.226501e-04	6.084475e+01	5.679635e-01
410           	collector_int	6.936162e+00	1.633678e+02	8.530110e+01
410           	collector_ext	2.382617e-02	5.484406e+01	6.005648e+00
410           	diffuser_int	1.670912e+00	1.407958e+02	5.927200e+01
410           	diffuser_ext	2.651465e-03	7.785616e+01	3.805386e+00
420           	nozzle_int	2.178026e+00	4.693683e+02	4.817346e+01
420           	nozzle_ext	1.736203e-03	6.085335e+01	5.687290e-01
420           	collector_int	7.008032e+00	1.636422e+02	8.536938e+01
420           	collector_ext	4.919668e-02	5.483556e+01	6.002211e+00
420           	diffuser_int	1.534526e+00	1.406560e+02	5.941679e+01
420           	diffuser_ext	5.493871e-03	7.787878e+01	3.797027e+00
430           	nozzle_int	2.196954e+00	4.693682e+02	4.817382e+01
430           	nozzle_ext	2.534896e-04	6.085849e+01	5.697354e-01
430           	collector_int	7.083624e+00	1.638921e+02	8.543422e+01
430           	collector_ext	5.618179e-02	5.482989e+01	6.001585e+00
430           	diffuser_int	1.882010e+00	1.405308e+02	5.955148e+01
430           	diffuser_ext	2.039455e-03	7.789958e+01	3.790223e+00
440           	nozzle_int	2.216102e+00	4.693683e+02	4.817411e+01
440           	nozzle_ext	1.116498e-03	6.085235e+01	5.705693e-01
440           	collector_int	7.150241e+00	1.640993e+02	8.549305e+01
440           	collector_ext	1.590153e-02	5.482904e+01	6.000239e+00
440           	diffuser_int	1.528082e+00	1.404171e+02	5.967811e+01
440           	diffuser_ext	1.700480e-03	7.792032e+01	3.783787e+00
450           	nozzle_int	2.235925e+00	4.693686e+02	4.817425e+01
450           	nozzle_ext	1.061605e-03	6.086172e+01	5.712905e-01
450           	collector_int	7.202931e+00	1.642942e+02	8.554798e+01
450           	collector_ext	7.698158e-03	5.483086e+01	5.996447e+00
450           	diffuser_int	1.533478e+00	1.403128e+02	5.979790e+01
450           	diffuser_ext	1.958263e-02	7.794206e+01	3.777102e+00
460           	nozzle_int	2.255726e+00	4.693685e+02	4.817434e+01
460           	nozzle_ext	1.468776e-03	6.087833e+01	5.722062e-01
460           	collector_int	7.242712e+00	1.644663e+02	8.559950e+01
460           	collector_ext	4.373275e-02	5.483348e+01	5.991279e+00
460           	diffuser_int	1.835946e+00	1.402208e+02	5.990929e+01
460           	diffuser_ext	5.514168e-03	7.796282e+01	3.769667e+00
470           	nozzle_int	2.275631e+00	4.693684e+02	4.817438e+01
470           	nozzle_ext	7.279858e-04	6.089290e+01	5.730708e-01
470           	collector_int	7.278517e+00	1.646177e+02	8.564789e+01
470           	collector_ext	2.270787e-02	5.483525e+01	5.985880e+00
470           	diffuser_int	2.031499e+00	1.401415e+02	6.001414e+01
470           	diffuser_ext	6.043325e-03	7.798199e+01	3.762281e+00
480           	nozzle_int	2.295969e+00	4.693682e+02	4.817439e+01
480           	nozzle_ext	7.128028e-04	6.090744e+01	5.738562e-01
480           	collector_int	7.313350e+00	1.647572e+02	8.569321e+01
480           	collector_ext	3.557463e-02	5.483605e+01	5.981803e+00
480           	diffuser_int	1.658369e+00	1.400639e+02	6.011315e+01
480           	diffuser_ext	1.375202e-02	7.799972e+01	3.755561e+00
490           	nozzle_int	2.316332e+00	4.693680e+02	4.817439e+01
490           	nozzle_ext	5.558993e-04	6.092191e+01	5.745671e-01
490           	collector_int	7.345924e+00	1.648839e+02	8.573587e+01
490           	collector_ext	1.901189e-02	5.483777e+01	5.979216e+00
490           	diffuser_int	1.425590e+00	1.399935e+02	6.020675e+01
490           	diffuser_ext	5.979801e-03	7.801535e+01	3.749446e+00
500           	nozzle_int	2.336925e+00	4.693678e+02	4.817441e+01
500           	nozzle_ext	5.879797e-04	6.093558e+01	5.753425e-01
500           	collector_int	7.373448e+00	1.649926e+02	8.577529e+01
500           	collector_ext	2.054501e-02	5.484099e+01	5.978235e+00
500           	diffuser_int	1.557908e+00	1.399344e+02	6.029439e+01
500           	diffuser_ext	5.401448e-03	7.803029e+01	3.744280e+00
510           	nozzle_int	2.358007e+00	4.693678e+02	4.817441e+01
510           	nozzle_ext	7.000894e-04	6.094946e+01	5.761612e-01
510           	collector_int	7.394588e+00	1.650904e+02	8.581068e+01
510           	collector_ext	1.241762e-02	5.484586e+01	5.978201e+00
510           	diffuser_int	1.804372e+00	1.398839e+02	6.037642e+01
510           	diffuser_ext	1.136916e-02	7.804543e+01	3.740095e+00
520           	nozzle_int	2.379352e+00	4.693678e+02	4.817443e+01
520           	nozzle_ext	1.104594e-03	6.096493e+01	5.769575e-01
520           	collector_int	7.410275e+00	1.651803e+02	8.584272e+01
520           	collector_ext	9.780214e-03	5.485164e+01	5.980161e+00
520           	diffuser_int	1.851101e+00	1.398386e+02	6.045326e+01
520           	diffuser_ext	4.323512e-03	7.806104e+01	3.736423e+00
530           	nozzle_int	2.401004e+00	4.693679e+02	4.817446e+01
530           	nozzle_ext	2.320772e-04	6.098235e+01	5.777761e-01
530           	collector_int	7.422796e+00	1.652626e+02	8.587237e+01
530           	collector_ext	1.038573e-02	5.485752e+01	5.981421e+00
530           	diffuser_int	1.636311e+00	1.397951e+02	6.052491e+01
530           	diffuser_ext	6.376315e-03	7.807587e+01	3.733083e+00
540           	nozzle_int	2.423068e+00	4.693680e+02	4.817449e+01
540           	nozzle_ext	8.062281e-04	6.099935e+01	5.785862e-01
540           	collector_int	7.434666e+00	1.653372e+02	8.589953e+01
540           	collector_ext	5.090754e-02	5.486325e+01	5.982013e+00
540           	diffuser_int	1.440922e+00	1.397533e+02	6.059118e+01
540           	diffuser_ext	7.402308e-03	7.808954e+01	3.729866e+00
550           	nozzle_int	2.445416e+00	4.693681e+02	4.817452e+01
550           	nozzle_ext	1.687917e-04	6.101593e+01	5.794292e-01
550           	collector_int	7.447605e+00	1.654094e+02	8.592425e+01
550           	collector_ext	4.015864e-02	5.486812e+01	5.982236e+00
550           	diffuser_int	1.279031e+00	1.397128e+02	6.065246e+01
550           	diffuser_ext	2.714667e-03	7.810170e+01	3.727147e+00
560           	nozzle_int	2.468116e+00	4.693682e+02	4.817455e+01
560           	nozzle_ext	1.908945e-03	6.103207e+01	5.802860e-01
560           	collector_int	7.461996e+00	1.654797e+02	8.594710e+01
560           	collector_ext	1.685281e-02	5.487199e+01	5.981813e+00
560           	diffuser_int	1.184730e+00	1.396731e+02	6.070892e+01
560           	diffuser_ext	7.259590e-03	7.811220e+01	3.724368e+00
570           	nozzle_int	2.491183e+00	4.693683e+02	4.817457e+01
570           	nozzle_ext	9.011254e-04	6.104778e+01	5.811196e-01
570           	collector_int	7.477485e+00	1.655470e+02	8.596826e+01
570           	collector_ext	2.798414e-02	5.487520e+01	5.981664e+00
570           	diffuser_int	1.154219e+00	1.396338e+02	6.076054e+01
570           	diffuser_ext	1.557930e-02	7.812129e+01	3.722034e+00
580           	nozzle_int	2.514563e+00	4.693684e+02	4.817459e+01
580           	nozzle_ext	1.008669e-03	6.106310e+01	5.820204e-01
580           	collector_int	7.493639e+00	1.656109e+02	8.598781e+01
580           	collector_ext	1.485906e-02	5.487778e+01	5.980843e+00
580           	diffuser_int	1.162067e+00	1.395953e+02	6.080747e+01
580           	diffuser_ext	1.585357e-02	7.812932e+01	3.720169e+00
590           	nozzle_int	2.538297e+00	4.693684e+02	4.817461e+01
590           	nozzle_ext	6.473062e-04	6.107801e+01	5.829830e-01
590           	collector_int	7.510064e+00	1.656721e+02	8.600604e+01
590           	collector_ext	2.111131e-02	5.487939e+01	5.980594e+00
590           	diffuser_int	1.193113e+00	1.395567e+02	6.085005e+01
590           	diffuser_ext	2.191584e-03	7.813648e+01	3.718806e+00
600           	nozzle_int	2.562403e+00	4.693684e+02	4.817463e+01
600           	nozzle_ext	3.748426e-04	6.109253e+01	5.840144e-01
600           	collector_int	7.526305e+00	1.657307e+02	8.602324e+01
600           	collector_ext	3.604074e-02	5.488001e+01	5.980148e+00
600           	diffuser_int	1.233546e+00	1.395178e+02	6.088849e+01
600           	diffuser_ext	8.923089e-03	7.814281e+01	3.717650e+00
610           	nozzle_int	2.586846e+00	4.693683e+02	4.817466e+01
610           	nozzle_ext	3.843591e-04	6.110668e+01	5.850997e-01
610           	collector_int	7.541924e+00	1.657870e+02	8.603961e+01
610           	collector_ext	2.126126e-02	5.487974e+01	5.979656e+00
610           	diffuser_int	1.283978e+00	1.394796e+02	6.092297e+01
610           	diffuser_ext	4.424000e-03	7.814840e+01	3.716562e+00
620           	nozzle_int	2.611653e+00	4.693684e+02	4.817468e+01
620           	nozzle_ext	8.412600e-04	6.112048e+01	5.862559e-01
620           	collector_int	7.556627e+00	1.658417e+02	8.605539e+01
620           	collector_ext	2.464243e-02	5.487888e+01	5.978892e+00
620           	diffuser_int	1.343342e+00	1.394426e+02	6.095380e+01
620           	diffuser_ext	7.407105e-03	7.815321e+01	3.715553e+00
630           	nozzle_int	2.636838e+00	4.693684e+02	4.817470e+01
630           	nozzle_ext	6.950649e-04	6.113397e+01	5.874361e-01
630           	collector_int	7.570299e+00	1.658940e+02	8.607072e+01
630           	collector_ext	3.395819e-02	5.487783e+01	5.978291e+00
630           	diffuser_int	1.407487e+00	1.394066e+02	6.098132e+01
630           	diffuser_ext	6.022785e-03	7.815732e+01	3.714650e+00
640           	nozzle_int	2.662386e+00	4.693684e+02	4.817472e+01
640           	nozzle_ext	3.299729e-04	6.114715e+01	5.886485e-01
640           	collector_int	7.582994e+00	1.659444e+02	8.608559e+01
640           	collector_ext	1.229908e-02	5.487686e+01	5.977626e+00
640           	diffuser_int	1.470201e+00	1.393712e+02	6.100586e+01
640           	diffuser_ext	1.709551e-02	7.816105e+01	3.713768e+00
650           	nozzle_int	2.688298e+00	4.693685e+02	4.817475e+01
650           	nozzle_ext	1.142588e-03	6.116004e+01	5.899248e-01
650           	collector_int	7.594902e+00	1.659938e+02	8.610009e+01
650           	collector_ext	4.316490e-02	5.487606e+01	5.977198e+00
650           	diffuser_int	1.530814e+00	1.393362e+02	6.102773e+01
650           	diffuser_ext	8.257651e-03	7.816465e+01	3.712941e+00
660           	nozzle_int	2.714595e+00	4.693686e+02	4.817479e+01
660           	nozzle_ext	7.789853e-04	6.117264e+01	5.912372e-01
660           	collector_int	7.606308e+00	1.660418e+02	8.611444e+01
660           	collector_ext	5.836750e-02	5.487532e+01	5.976637e+00
660           	diffuser_int	1.591408e+00	1.393016e+02	6.104726e+01
660           	diffuser_ext	1.445410e-02	7.816809e+01	3.712186e+00
670           	nozzle_int	2.741278e+00	4.693687e+02	4.817481e+01
670           	nozzle_ext	2.270203e-04	6.118498e+01	5.925969e-01
670           	collector_int	7.617522e+00	1.660891e+02	8.612865e+01
670           	collector_ext	4.217872e-02	5.487448e+01	5.976087e+00
670           	diffuser_int	1.655320e+00	1.392672e+02	6.106474e+01
670           	diffuser_ext	1.434152e-02	7.817121e+01	3.711486e+00
680           	nozzle_int	2.768347e+00	4.693688e+02	4.817485e+01
680           	nozzle_ext	8.330462e-04	6.119709e+01	5.939937e-01
680           	collector_int	7.628788e+00	1.661358e+02	8.614274e+01
680           	collector_ext	7.610320e-02	5.487334e+01	5.975582e+00
680           	diffuser_int	1.707156e+00	1.392325e+02	6.108039e+01
680           	diffuser_ext	5.153167e-03	7.817392e+01	3.710859e+00
690           	nozzle_int	2.795798e+00	4.693690e+02	4.817488e+01
690           	nozzle_ext	5.153869e-04	6.120898e+01	5.954158e-01
690           	collector_int	7.640235e+00	1.661818e+02	8.615678e+01
690           	collector_ext	4.033130e-02	5.487202e+01	5.975090e+00
690           	diffuser_int	1.664979e+00	1.391973e+02	6.109444e+01
690           	diffuser_ext	5.566675e-03	7.817619e+01	3.710059e+00
700           	nozzle_int	2.823642e+00	4.693690e+02	4.817491e+01
700           	nozzle_ext	3.572986e-04	6.122064e+01	5.968665e-01
700           	collector_int	7.651884e+00	1.662274e+02	8.617086e+01
700           	collector_ext	2.716874e-02	5.487069e+01	5.974764e+00
700           	diffuser_int	1.628006e+00	1.391618e+02	6.110711e+01
700           	diffuser_ext	8.336833e-03	7.817813e+01	3.709341e+00
710           	nozzle_int	2.851868e+00	4.693689e+02	4.817494e+01
710           	nozzle_ext	1.178046e-04	6.123212e+01	5.983767e-01
710           	collector_int	7.663667e+00	1.662729e+02	8.618501e+01
710           	collector_ext	3.979683e-02	5.486930e+01	5.974259e+00
710           	diffuser_int	1.596597e+00	1.391258e+02	6.111858e+01
710           	diffuser_ext	4.527094e-03	7.818002e+01	3.708554e+00
720           	nozzle_int	2.880486e+00	4.693688e+02	4.817495e+01
720           	nozzle_ext	1.118482e-03	6.124342e+01	5.999222e-01
720           	collector_int	7.675453e+00	1.663181e+02	8.619921e+01
720           	collector_ext	4.265983e-02	5.486782e+01	5.973908e+00
720           	diffuser_int	1.572522e+00	1.390898e+02	6.112899e+01
720           	diffuser_ext	7.556781e-03	7.818205e+01	3.707761e+00
730           	nozzle_int	2.909522e+00	4.693688e+02	4.817497e+01
730           	nozzle_ext	1.333792e-03	6.125456e+01	6.014821e-01
730           	collector_int	7.687087e+00	1.663634e+02	8.621341e+01
730           	collector_ext	1.321204e-02	5.486626e+01	5.973553e+00
730           	diffuser_int	1.556651e+00	1.390536e+02	6.113844e+01
730           	diffuser_ext	4.790389e-03	7.818428e+01	3.707004e+00
740           	nozzle_int	2.938957e+00	4.693687e+02	4.817498e+01
740           	nozzle_ext	1.422529e-03	6.126555e+01	6.030772e-01
740           	collector_int	7.698438e+00	1.664090e+02	8.622763e+01
740           	collector_ext	1.010436e-02	5.486453e+01	5.973280e+00