# Probe 0 (-1 0 0)
# Probe 1 (1 0 0)
# Probe 2 (1.7 0 0)
# Time        0             1             2            
0             (0 0 0)       (0 0 0)       (0 0 0)      
1             (8.16844 0.0996214 -0.182001) (3.22496 -0.0326165 0.0880687) (5.59213 -0.0385184 -0.00991844)
2             (14.0187 0.0757356 -0.0254529) (5.36269 -0.054004 0.127451) (9.93489 -0.0510216 -0.00578873)
3             (29.7919 0.0199138 0.277017) (12.1673 -0.127452 0.285761) (21.4281 -0.10625 -0.118465)
4             (39.7347 0.0369921 0.1973) (16.7998 -0.177661 0.469202) (29.5547 -0.151261 -0.191571)
5             (39.6334 0.0663536 -0.0328487) (17.5966 -0.18793 0.527076) (30.3021 -0.181307 -0.243393)
6             (33.3227 0.0669146 -0.176017) (16.2081 -0.177809 0.456041) (26.8453 -0.180776 -0.293065)
7             (27.8457 0.0407652 -0.195848) (14.9344 -0.165078 0.343405) (24.1025 -0.157527 -0.274725)
8             (26.991 0.0165897 -0.181629) (14.9676 -0.154957 0.26904) (24.6018 -0.145717 -0.206993)
9             (30.0242 0.00638961 -0.176595) (15.9885 -0.143661 0.235601) (27.1951 -0.162203 -0.158755)
10            (33.4941 -0.00879822 -0.134862) (17.0559 -0.124757 0.20645) (29.3603 -0.192166 -0.14931)
11            (34.72 -0.0411194 -0.0611459) (17.6893 -0.0944422 0.154726) (29.8144 -0.215494 -0.176204)
12            (33.5874 -0.0773779 -0.00935453) (18.1151 -0.057297 0.0881021) (29.055 -0.225507 -0.235397)
13            (31.778 -0.0998583 -0.0178693) (18.7575 -0.0224499 0.027784) (28.2322 -0.227628 -0.30573)
14            (30.8044 -0.105379 -0.0741823) (19.8367 0.00323017 -0.0127956) (28.1446 -0.228468 -0.362433)
15            (31.0112 -0.10252 -0.122301) (21.2482 0.0192994 -0.0369911) (28.7036 -0.230077 -0.394295)
16            (31.6993 -0.10098 -0.122027) (22.7304 0.028383 -0.0544237) (29.2587 -0.229174 -0.405575)
17            (32.0577 -0.102898 -0.0855596) (24.068 0.0321851 -0.0662255) (29.3515 -0.219884 -0.412419)
18            (31.7892 -0.104454 -0.0445652) (25.1514 0.0314355 -0.0692913) (29.0801 -0.199886 -0.426116)
19            (31.2054 -0.101574 -0.0184885) (25.9859 0.0272883 -0.0630816) (28.8386 -0.171721 -0.442935)
20            (30.7436 -0.0940202 -0.00944497) (26.6833 0.022482 -0.0514493) (28.9183 -0.142398 -0.442579)
21            (30.6196 -0.0840682 -0.0107349) (27.3532 0.0193209 -0.0389622) (29.2661 -0.118679 -0.412172)
22            (30.7594 -0.0741491 -0.0145694) (28.0166 0.018535 -0.027392) (29.6181 -0.102641 -0.352289)
23            (30.9418 -0.0659124 -0.0179847) (28.6043 0.0191094 -0.016323) (29.7521 -0.0921469 -0.275868)
24            (30.9721 -0.0600224 -0.0219697) (29.0335 0.0192471 -0.00679851) (29.6627 -0.0843895 -0.202331)
25            (30.8314 -0.0558187 -0.0274534) (29.3021 0.0179176 -0.00247983) (29.4794 -0.0784552 -0.144563)
26            (30.6061 -0.0519179 -0.0311006) (29.4949 0.0156519 -0.00592807) (29.3003 -0.0744759 -0.103484)
27            (30.4156 -0.0467335 -0.0294445) (29.7286 0.0138344 -0.0144033) (29.1144 -0.071755 -0.0725243)
28            (30.309 -0.039321 -0.0233655) (30.0563 0.0123889 -0.0234026) (28.8611 -0.0680394 -0.0418157)
29            (30.3117 -0.0301757 -0.015388) (30.4437 0.0100094 -0.0297451) (28.5273 -0.0608964 -0.00164731)
30            (30.3673 -0.021617 -0.00858818) (30.781 0.00356499 -0.0322795) (28.1369 -0.0487184 0.0436616)
31            (30.4181 -0.01561 -0.00613825) (30.9491 -0.0095161 -0.0357318) (27.7688 -0.0323977 0.0888615)
32            (30.4184 -0.0129217 -0.00708227) (30.9313 -0.0277244 -0.0431897) (27.4607 -0.0138607 0.127775)
33            (30.3472 -0.0127769 -0.00821949) (30.8275 -0.0450154 -0.0543689) (27.2589 0.00428262 0.156779)
34            (30.2497 -0.0135207 -0.00698245) (30.7759 -0.0554885 -0.0660644) (27.1827 0.0197197 0.176796)
35            (30.1736 -0.0137995 -0.00463121) (30.8566 -0.0586145 -0.075145) (27.2033 0.0304381 0.189098)
36            (30.1437 -0.0141384 -0.00481057) (31.0402 -0.0581849 -0.0819241) (27.2968 0.0375073 0.194678)
37            (30.1656 -0.0153777 -0.00807204) (31.2187 -0.058926 -0.0954763) (27.4318 0.0400255 0.197493)
38            (30.2075 -0.0173342 -0.0136035) (31.2802 -0.0635227 -0.119226) (27.5887 0.0390297 0.197667)
39            (30.2367 -0.019706 -0.0200593) (31.1797 -0.0702645 -0.144222) (27.7457 0.0347899 0.194271)
40            (30.2355 -0.0221629 -0.0231361) (30.9606 -0.0747641 -0.161935) (27.846 0.0263916 0.191481)
41            (30.2144 -0.0243655 -0.0236583) (30.7331 -0.0725557 -0.160074) (27.8842 0.0142467 0.189289)
42            (30.1799 -0.0262363 -0.0224653) (30.602 -0.0614136 -0.135411) (27.862 0.00101105 0.187895)
43            (30.1453 -0.0278477 -0.0185819) (30.6006 -0.0432162 -0.0934374) (27.8127 -0.0110988 0.189516)
44            (30.1201 -0.0292558 -0.0142719) (30.6817 -0.0242596 -0.051144) (27.7902 -0.0199996 0.194237)
45            (30.1106 -0.0305983 -0.011278) (30.7662 -0.0112751 -0.0257491) (27.8322 -0.0250628 0.202021)
46            (30.1198 -0.0318845 -0.0105377) (30.7908 -0.00755897 -0.0271474) (27.9308 -0.0265434 0.211763)
47            (30.1446 -0.0328627 -0.0116027) (30.7362 -0.0118447 -0.0506672) (28.0401 -0.0260889 0.219933)
48            (30.1739 -0.0337337 -0.0142849) (30.6278 -0.0186094 -0.0827171) (28.1084 -0.0252952 0.221514)
49            (30.1978 -0.0344812 -0.0171808) (30.5183 -0.022531 -0.105075) (28.1012 -0.0252752 0.215963)
50            (30.2102 -0.0351277 -0.0193616) (30.4523 -0.020531 -0.105163) (28.0169 -0.0254039 0.205533)
51            (30.2102 -0.0357439 -0.0206738) (30.4443 -0.0125351 -0.0820077) (27.8908 -0.0236956 0.18913)
52            (30.2013 -0.0360785 -0.0203663) (30.4781 -0.000722143 -0.0453177) (27.7783 -0.0195258 0.170523)
53            (30.1845 -0.036218 -0.0190545) (30.5179 0.0105271 -0.00888895) (27.702 -0.0120682 0.153505)
54            (30.1698 -0.036078 -0.0174062) (30.5288 0.0168528 0.0149851) (27.7035 -0.00177004 0.138481)
55            (30.1641 -0.0357079 -0.0158316) (30.5014 0.016421 0.0209504) (27.7514 0.0112771 0.122028)
56            (30.1667 -0.0352104 -0.0147028) (30.4499 0.0100114 0.0115566) (27.7948 0.0236811 0.103065)
57            (30.1725 -0.0346557 -0.0142161) (30.3945 0.000692148 -0.00600902) (27.7973 0.0316512 0.0833188)
58            (30.1788 -0.0340711 -0.0142291) (30.3488 -0.00779248 -0.0237686) (27.7528 0.0332989 0.0653876)
59            (30.1839 -0.0334861 -0.014446) (30.3183 -0.0126993 -0.0363027) (27.6856 0.0295587 0.0519068)
60            (30.1874 -0.0329364 -0.0145604) (30.2999 -0.0131872 -0.0417105) (27.6338 0.0236135 0.0443642)
61            (30.1896 -0.0324464 -0.0143505) (30.2856 -0.0103522 -0.0406966) (27.6285 0.0191351 0.0417532)
62            (30.191 -0.0320216 -0.0137587) (30.2667 -0.006505 -0.0353579) (27.6808 0.0184103 0.0405083)
63            (30.1916 -0.031649 -0.0129099) (30.2374 -0.00393416 -0.02821) (27.7803 0.0213342 0.0361803)
64            (30.191 -0.0313105 -0.0120251) (30.1962 -0.00376152 -0.0211055) (27.9019 0.0257138 0.0261273)
65            (30.1892 -0.0309953 -0.0112934) (30.1467 -0.00571208 -0.0148564) (28.0177 0.0285514 0.0112521)
66            (30.1864 -0.0307029 -0.0107702) (30.0955 -0.00872526 -0.0100791) (28.1096 0.0275362 -0.00432741)
67            (30.1836 -0.030438 -0.0104044) (30.0481 -0.0116619 -0.0073989) (28.1772 0.0220508 -0.0158379)
68            (30.1818 -0.0302026 -0.0101212) (30.0077 -0.0136936 -0.00730975) (28.2344 0.0133064 -0.0213969)
69            (30.1818 -0.0299916 -0.00986928) (29.9767 -0.0144401 -0.00950138) (28.2995 0.00368086 -0.0233904)
70            (30.183 -0.0298022 -0.00967219) (29.9564 -0.0139975 -0.0129986) (28.3802 -0.00426501 -0.0268084)
71            (30.1844 -0.0296256 -0.00958357) (29.9469 -0.0128765 -0.0165944) (28.4705 -0.00877991 -0.0361062)
72            (30.1849 -0.0294538 -0.00962483) (29.9471 -0.0117908 -0.0199035) (28.5613 -0.00960493 -0.0532007)
73            (30.1842 -0.0292813 -0.00976936) (29.9541 -0.0112573 -0.0235865) (28.6479 -0.0079228 -0.0769053)
74            (30.1826 -0.0291098 -0.00997952) (29.9627 -0.0112461 -0.0283808) (28.7268 -0.00561905 -0.103706)
75            (30.1807 -0.0289444 -0.0102148) (29.9679 -0.0112341 -0.033629) (28.7932 -0.00439875 -0.129547)
76            (30.1792 -0.028788 -0.0104478) (29.9669 -0.0106893 -0.0375631) (28.8431 -0.00514837 -0.151204)
77            (30.1784 -0.0286391 -0.010675) (29.96 -0.00949425 -0.0390322) (28.8751 -0.00773117 -0.1673)
78            (30.1787 -0.0284938 -0.0109085) (29.9501 -0.00798359 -0.0383068) (28.8904 -0.0111913 -0.17893)
79            (30.1802 -0.0283482 -0.0111588) (29.9407 -0.00666512 -0.0369664) (28.8932 -0.0142483 -0.189125)
80            (30.1824 -0.0282038 -0.0114339) (29.9344 -0.00588263 -0.0367645) (28.8875 -0.0157989 -0.201184)
81            (30.1844 -0.028066 -0.0117225) (29.9319 -0.00563099 -0.0385187) (28.8738 -0.015296 -0.2171)
82            (30.1861 -0.0279362 -0.0119777) (29.9331 -0.00565332 -0.0417352) (28.8535 -0.0129998 -0.236649)
83            (30.1873 -0.0278141 -0.0121671) (29.9368 -0.00564947 -0.045049) (28.8294 -0.00978959 -0.257552)
84            (30.1882 -0.0276984 -0.0122668) (29.9419 -0.00541888 -0.0479061) (28.8035 -0.00664115 -0.27493)
85            (30.189 -0.0275894 -0.0123459) (29.9473 -0.00489381 -0.0500289) (28.7783 -0.00427235 -0.288631)
86            (30.1903 -0.0274864 -0.0123888) (29.9535 -0.00413418 -0.0509802) (28.7552 -0.00288324 -0.295461)
87            (30.1922 -0.0273876 -0.0124285) (29.9607 -0.0032092 -0.0501768) (28.7326 -0.00231975 -0.295971)
88            (30.194 -0.0272943 -0.0124901) (29.969 -0.00231507 -0.047233) (28.7094 -0.00205382 -0.290263)
89            (30.1958 -0.0272061 -0.0125666) (29.9785 -0.00159185 -0.0429511) (28.6823 -0.00175033 -0.278715)
90            (30.1975 -0.0271213 -0.0126291) (29.9879 -0.00108647 -0.0378784) (28.6536 -0.00120053 -0.264229)
91            (30.199 -0.0270409 -0.0126724) (29.9963 -0.000745961 -0.032389) (28.6267 -0.000599265 -0.247968)
92            (30.2003 -0.0269661 -0.0126943) (30.0046 -0.000488821 -0.027097) (28.6023 -3.77932e-05 -0.230815)
93            (30.2015 -0.0268966 -0.0126972) (30.0143 -0.00023063 -0.0223685) (28.5785 0.000561264 -0.213071)
94            (30.2026 -0.0268299 -0.012682) (30.0257 7.61119e-05 -0.0181644) (28.5539 0.00130109 -0.194994)
95            (30.2038 -0.0267634 -0.0126527) (30.0383 0.000419253 -0.0143084) (28.5277 0.00221845 -0.176932)
96            (30.2049 -0.026697 -0.0126179) (30.0511 0.000743716 -0.0107841) (28.5002 0.00329344 -0.159131)
97            (30.206 -0.0266321 -0.0125844) (30.0627 0.000993016 -0.00783707) (28.4723 0.00444544 -0.141564)
98            (30.2071 -0.0265697 -0.0125534) (30.0724 0.0011449 -0.00571185) (28.4461 0.00553009 -0.124053)
99            (30.2082 -0.0265099 -0.0125224) (30.0796 0.00122178 -0.00433509) (28.4238 0.00639141 -0.106638)
100           (30.2093 -0.0264529 -0.01249) (30.0846 0.00127214 -0.00333264) (28.4062 0.0069269 -0.0896775)
101           (30.2104 -0.0264046 -0.0124558) (30.0883 0.00133772 -0.00233963) (28.3932 0.00696062 -0.0737695)
102           (30.2115 -0.0263557 -0.0124196) (30.0917 0.00143257 -0.00125141) (28.3835 0.00675414 -0.0595142)
103           (30.2126 -0.026307 -0.0123816) (30.0958 0.00157287 -0.000210438) (28.3756 0.00650081 -0.0469021)
104           (30.2137 -0.0262598 -0.012345) (30.1007 0.00176954 0.000555465) (28.3686 0.00632426 -0.0355813)
105           (30.2147 -0.0262148 -0.0123131) (30.1064 0.00201573 0.000922155) (28.362 0.00625839 -0.0252096)
106           (30.2157 -0.0261726 -0.0122869) (30.1124 0.002286 0.000968659) (28.3551 0.00627609 -0.0156427)
107           (30.2166 -0.0261336 -0.012265) (30.1183 0.00254523 0.000916546) (28.3474 0.00633061 -0.00693993)
108           (30.2175 -0.0260977 -0.0122445) (30.1234 0.00275961 0.000975422) (28.3381 0.00638002 0.000750339)
109           (30.2183 -0.0260648 -0.0122227) (30.127 0.00290642 0.00119559) (28.327 0.00639198 0.00731007)
110           (30.219 -0.0260344 -0.0121991) (30.1286 0.00298092 0.00143618) (28.3142 0.00634552 0.0127416)
111           (30.2197 -0.026006 -0.0121747) (30.1282 0.00299801 0.00147753) (28.3005 0.00624037 0.0171759)
112           (30.2204 -0.0259794 -0.0121514) (30.1256 0.00299099 0.00115456) (28.2858 0.00611072 0.0207687)
113           (30.221 -0.0259545 -0.0121299) (30.1217 0.00299084 0.000465219) (28.271 0.00599303 0.0237001)
114           (30.2216 -0.0259313 -0.0121094) (30.1178 0.00301146 -0.00033129) (28.2586 0.00589651 0.0263929)
115           (30.2221 -0.0259098 -0.0120886) (30.1147 0.00305931 -0.00100947) (28.2489 0.00584641 0.0290045)
116           (30.2227 -0.0258903 -0.0120667) (30.1129 0.00312803 -0.00152365) (28.2419 0.00582596 0.0316752)
117           (30.2232 -0.0258728 -0.0120444) (30.1124 0.00320753 -0.00195264) (28.2371 0.00581298 0.0344712)
118           (30.2237 -0.0258576 -0.0120221) (30.1129 0.00328742 -0.00238179) (28.2339 0.00580181 0.0374278)
119           (30.2242 -0.0258444 -0.0119989) (30.114 0.00335458 -0.00278419) (28.2314 0.00580006 0.0405695)
120           (30.2248 -0.0258326 -0.0119733) (30.1155 0.00340334 -0.00310263) (28.2285 0.00581845 0.0439409)
121           (30.2253 -0.0258219 -0.011944) (30.1169 0.00343351 -0.00330907) (28.2243 0.00586926 0.0474806)
122           (30.2258 -0.0258124 -0.0119127) (30.1176 0.00344801 -0.0034401) (28.218 0.00593583 0.0509203)
123           (30.2264 -0.0258045 -0.0118778) (30.1176 0.00345097 -0.00359091) (28.2109 0.00601097 0.0540165)
124           (30.2268 -0.0257982 -0.0118377) (30.1171 0.00344701 -0.00378883) (28.2037 0.0060959 0.056664)
125           (30.2272 -0.0257938 -0.0117931) (30.1166 0.00343832 -0.00401226) (28.1972 0.00619917 0.0589013)
126           (30.2276 -0.0257912 -0.0117382) (30.1163 0.00342232 -0.00428363) (28.1919 0.00629232 0.0610731)
127           (30.2278 -0.0257902 -0.011685) (30.1162 0.00340208 -0.00462595) (28.1878 0.00638519 0.0630141)
128           (30.228 -0.0257908 -0.0116323) (30.1164 0.00338555 -0.00501412) (28.1847 0.00647744 0.0646776)
129           (30.2282 -0.0257928 -0.0115776) (30.1168 0.00337879 -0.00538605) (28.1818 0.00656582 0.0660747)
130           (30.2285 -0.0257954 -0.0115206) (30.1172 0.00338076 -0.00570349) (28.1785 0.00664444 0.0673205)
131           (30.2288 -0.0257983 -0.0114665) (30.1174 0.00338587 -0.00599444) (28.1747 0.00670406 0.0685824)
132           (30.2291 -0.0258017 -0.0114193) (30.1176 0.00338891 -0.00630743) (28.1707 0.00674238 0.0699772)
133           (30.2294 -0.0258061 -0.0113777) (30.1179 0.00338597 -0.00665674) (28.1671 0.00676149 0.0715221)
134           (30.2296 -0.0258116 -0.0113381) (30.1184 0.00337467 -0.00701428) (28.1644 0.00676373 0.0731584)
135           (30.2298 -0.0258179 -0.011298) (30.1193 0.00335415 -0.00734122) (28.1625 0.00675336 0.0748019)
136           (30.2299 -0.0258245 -0.0112573) (30.1204 0.00332584 -0.00762112) (28.1612 0.00673956 0.0763839)
137           (30.23 -0.0258314 -0.0112174) (30.1214 0.0032951 -0.00787018) (28.1598 0.00673815 0.0778702)
138           (30.2301 -0.0258382 -0.0111788) (30.1222 0.00326904 -0.00812599) (28.1576 0.00675964 0.0792461)
139           (30.2301 -0.0258447 -0.011142) (30.1225 0.00325261 -0.00841727) (28.1552 0.00679522 0.0805333)
140           (30.2302 -0.025851 -0.0111087) (30.1226 0.00324655 -0.00874248) (28.1532 0.00683239 0.0817599)
141           (30.2302 -0.0258575 -0.0110808) (30.1229 0.00324843 -0.00907322) (28.1519 0.00686111 0.082937)
142           (30.2302 -0.0258639 -0.0110587) (30.1233 0.00325588 -0.00938377) (28.1513 0.00687327 0.084105)
143           (30.2302 -0.02587 -0.0110405) (30.1239 0.00326434 -0.00965131) (28.1512 0.0068661 0.0852998)
144           (30.2302 -0.0258753 -0.0110227) (30.1248 0.00327046 -0.00986595) (28.1512 0.00685044 0.0865251)
145           (30.2302 -0.0258799 -0.0110034) (30.1257 0.00327278 -0.0100424) (28.1508 0.00683934 0.0877171)
146           (30.2303 -0.0258845 -0.0109849) (30.1264 0.00327135 -0.0102136) (28.1501 0.00683476 0.0887961)
147           (30.2304 -0.0258893 -0.0109668) (30.1269 0.00326926 -0.0104048) (28.1491 0.00683712 0.0897317)
148           (30.2304 -0.0258939 -0.0109493) (30.1272 0.00327154 -0.0106216) (28.1479 0.00684837 0.0905363)
149           (30.2305 -0.0258982 -0.0109343) (30.1274 0.00328067 -0.0108488) (28.1467 0.00686544 0.0912517)
150           (30.2305 -0.025902 -0.010923) (30.1276 0.00329485 -0.0110594) (28.1459 0.0068838 0.091933)
151           (30.2304 -0.0259055 -0.0109149) (30.1278 0.00330982 -0.011229) (28.1455 0.00690165 0.0926199)
152           (30.2304 -0.0259088 -0.0109075) (30.1282 0.00332197 -0.0113497) (28.1457 0.00692088 0.0933161)
153           (30.2303 -0.0259115 -0.0108988) (30.1286 0.00333051 -0.0114325) (28.1459 0.00694532 0.093991)
154           (30.2303 -0.0259138 -0.0108889) (30.1289 0.0033367 -0.011501) (28.1459 0.00697476 0.0945955)
155           (30.2302 -0.0259157 -0.010879) (30.1291 0.00334231 -0.0115779) (28.1457 0.00700436 0.0951028)
156           (30.2302 -0.0259172 -0.01087) (30.1292 0.00334981 -0.0116725) (28.1455 0.00703337 0.0955238)
157           (30.2301 -0.0259184 -0.0108628) (30.1291 0.00336128 -0.0117801) (28.1452 0.0070627 0.095887)
158           (30.2301 -0.0259192 -0.0108577) (30.129 0.00337643 -0.0118868) (28.145 0.00709001 0.0962306)
159           (30.23 -0.0259197 -0.0108538) (30.1289 0.00339258 -0.0119755) (28.145 0.00711263 0.0965919)
160           (30.23 -0.0259198 -0.0108494) (30.1288 0.00340644 -0.0120345) (28.1454 0.00713153 0.0969856)
161           (30.23 -0.02592 -0.0108443) (30.1288 0.00341626 -0.0120641) (28.1459 0.00715045 0.0973861)
162           (30.23 -0.0259201 -0.0108394) (30.1288 0.00342211 -0.0120766) (28.1464 0.00717102 0.0977451)
163           (30.23 -0.0259201 -0.0108356) (30.1287 0.00342524 -0.0120885) (28.1467 0.00719244 0.0980284)
164           (30.23 -0.0259199 -0.0108332) (30.1285 0.00342795 -0.012112) (28.1468 0.0072151 0.0982309)
165           (30.23 -0.0259196 -0.0108323) (30.1282 0.00343279 -0.0121507) (28.1468 0.00723975 0.0983699)
166           (30.2299 -0.025919 -0.010833) (30.1278 0.00344117 -0.0122) (28.1467 0.0072651 0.0984781)
167           (30.2299 -0.0259185 -0.0108352) (30.1274 0.00345264 -0.0122491) (28.1466 0.00728831 0.0985949)
168           (30.2298 -0.025918 -0.0108379) (30.1269 0.00346533 -0.0122861) (28.1465 0.00730753 0.0987506)
169           (30.2298 -0.0259176 -0.0108409) (30.1265 0.00347713 -0.012304) (28.1466 0.0073229 0.0989485)
170           (30.2298 -0.0259173 -0.0108442) (30.1262 0.00348656 -0.012304) (28.1467 0.00733536 0.0991652)
171           (30.2297 -0.025917 -0.010848) (30.1259 0.00349311 -0.012293) (28.1468 0.00734591 0.0993669)
172           (30.2297 -0.0259165 -0.0108515) (30.1255 0.00349724 -0.0122797) (28.1467 0.00735601 0.0995275)
173           (30.2297 -0.0259159 -0.0108542) (30.1252 0.00350015 -0.0122704) (28.1465 0.00736733 0.0996391)
174           (30.2297 -0.025915 -0.0108556) (30.1247 0.00350318 -0.0122679) (28.146 0.00738081 0.0997133)
175           (30.2296 -0.0259141 -0.0108558) (30.1242 0.00350727 -0.0122706) (28.1454 0.0073962 0.0997768)
176           (30.2296 -0.0259131 -0.0108551) (30.1236 0.00351268 -0.0122743) (28.1447 0.0074125 0.0998592)
177           (30.2296 -0.0259121 -0.010854) (30.1231 0.00351896 -0.0122781) (28.1441 0.00742948 0.0999639)
178           (30.2296 -0.0259113 -0.010854) (30.1225 0.0035251 -0.012276) (28.1435 0.0074446 0.100099)
179           (30.2296 -0.0259107 -0.0108561) (30.122 0.00353182 -0.0122582) (28.143 0.00745675 0.100283)
180           (30.2296 -0.02591 -0.0108597) (30.1215 0.00353857 -0.0122349) (28.1426 0.00746656 0.100479)
181           (30.2296 -0.0259095 -0.0108635) (30.1211 0.00354421 -0.0122167) (28.1421 0.00747421 0.100657)
182           (30.2296 -0.0259092 -0.0108672) (30.1207 0.00354882 -0.012194) (28.1415 0.00748428 0.10081)
183           (30.2296 -0.0259092 -0.0108709) (30.1203 0.00355268 -0.0121644) (28.1407 0.00749791 0.100939)
184           (30.2296 -0.0259092 -0.010873) (30.1199 0.00355541 -0.0121404) (28.1399 0.00751188 0.101052)
185           (30.2296 -0.0259092 -0.0108733) (30.1195 0.00355871 -0.0121182) (28.1389 0.00752848 0.101156)
186           (30.2296 -0.0259093 -0.0108727) (30.119 0.00356248 -0.0120977) (28.1376 0.00754941 0.101241)
187           (30.2296 -0.0259094 -0.0108723) (30.1186 0.00356501 -0.0120831) (28.1364 0.00756999 0.10133)
188           (30.2296 -0.0259095 -0.0108719) (30.1182 0.00356704 -0.0120726) (28.1353 0.00758919 0.101432)
189           (30.2296 -0.0259096 -0.0108718) (30.1178 0.00356893 -0.0120642) (28.1343 0.0076056 0.101548)
190           (30.2296 -0.0259097 -0.0108723) (30.1175 0.00357081 -0.0120555) (28.1333 0.0076186 0.101677)
191           (30.2296 -0.0259097 -0.0108738) (30.1172 0.00357279 -0.0120447) (28.1324 0.00762897 0.101818)
192           (30.2296 -0.0259097 -0.0108761) (30.1168 0.00357489 -0.0120305) (28.1315 0.00763827 0.101969)
193           (30.2296 -0.0259097 -0.0108791) (30.1165 0.00357698 -0.0120127) (28.1307 0.00764792 0.102125)
194           (30.2296 -0.0259097 -0.0108823) (30.1163 0.00357876 -0.011992) (28.1298 0.00765887 0.10228)
195           (30.2296 -0.0259096 -0.0108845) (30.116 0.00357982 -0.0119705) (28.1289 0.00767156 0.102428)
196           (30.2296 -0.0259096 -0.0108844) (30.1158 0.00357985 -0.011951) (28.128 0.00768608 0.102562)
197           (30.2296 -0.0259096 -0.0108816) (30.1155 0.00357883 -0.0119362) (28.1269 0.0077022 0.102679)
198           (30.2296 -0.0259098 -0.0108777) (30.1153 0.00357702 -0.0119284) (28.1258 0.00771945 0.102779)
199           (30.2296 -0.02591 -0.010874) (30.1151 0.00357492 -0.0119284) (28.1246 0.0077372 0.102867)
200           (30.2296 -0.0259102 -0.0108717) (30.1149 0.00357304 -0.0119356) (28.1235 0.00775481 0.102947)
201           (30.2296 -0.0259103 -0.0108715) (30.1147 0.00357178 -0.0119481) (28.1223 0.00777177 0.103024)
202           (30.2296 -0.0259104 -0.0108734) (30.1144 0.0035713 -0.0119633) (28.1212 0.00778771 0.103103)
203           (30.2296 -0.0259105 -0.0108772) (30.1142 0.00357155 -0.011978) (28.1201 0.00780244 0.103186)
204           (30.2296 -0.0259107 -0.0108823) (30.114 0.00357228 -0.0119898) (28.119 0.00781595 0.103274)
205           (30.2296 -0.0259112 -0.0108877) (30.1138 0.00357313 -0.0119974) (28.118 0.00782837 0.103365)
206           (30.2296 -0.0259118 -0.0108926) (30.1137 0.00357369 -0.0120008) (28.117 0.00783989 0.103459)
207           (30.2296 -0.0259123 -0.010897) (30.1135 0.00357362 -0.0120018) (28.116 0.00785062 0.103551)
208           (30.2296 -0.0259126 -0.0109011) (30.1133 0.00357269 -0.0120028) (28.1151 0.00786066 0.103638)
209           (30.2296 -0.0259128 -0.0109055) (30.1131 0.0035709 -0.0120062) (28.1142 0.00787003 0.103719)
210           (30.2296 -0.0259129 -0.0109105) (30.1129 0.00356851 -0.0120138) (28.1133 0.00787879 0.103792)
211           (30.2296 -0.025913 -0.0109158) (30.1128 0.00356593 -0.0120265) (28.1124 0.00788708 0.103856)
212           (30.2296 -0.0259131 -0.0109214) (30.1126 0.00356362 -0.0120438) (28.1116 0.00789508 0.103914)
213           (30.2296 -0.0259135 -0.0109271) (30.1125 0.00356192 -0.0120643) (28.1108 0.00790298 0.103969)
214           (30.2296 -0.025914 -0.0109328) (30.1124 0.00356092 -0.012086) (28.1101 0.00791095 0.104021)
215           (30.2296 -0.0259145 -0.0109381) (30.1123 0.00356047 -0.0121068) (28.1094 0.00791913 0.104074)
216           (30.2296 -0.0259151 -0.0109426) (30.1122 0.00356023 -0.0121251) (28.1087 0.00792772 0.104127)
217           (30.2296 -0.0259157 -0.0109463) (30.1122 0.00355981 -0.0121403) (28.108 0.00793683 0.10418)
218           (30.2296 -0.0259162 -0.0109497) (30.1121 0.00355899 -0.0121526) (28.1073 0.00794653 0.104231)
219           (30.2296 -0.0259166 -0.0109534) (30.1121 0.00355776 -0.012163) (28.1065 0.00795671 0.104279)
220           (30.2296 -0.0259167 -0.0109571) (30.112 0.00355628 -0.012173) (28.1058 0.00796719 0.10432)
221           (30.2296 -0.0259168 -0.0109606) (30.112 0.00355483 -0.0121839) (28.1051 0.00797768 0.104354)
222           (30.2296 -0.0259167 -0.0109638) (30.1119 0.00355363 -0.0121964) (28.1044 0.00798785 0.10438)
223           (30.2296 -0.0259167 -0.0109674) (30.1119 0.00355281 -0.0122111) (28.1038 0.00799736 0.1044)
224           (30.2296 -0.0259167 -0.010971) (30.1118 0.00355242 -0.0122278) (28.1031 0.00800594 0.104416)
225           (30.2296 -0.0259167 -0.0109741) (30.1118 0.00355238 -0.012246) (28.1025 0.00801341 0.104431)
226           (30.2296 -0.0259167 -0.0109763) (30.1118 0.00355257 -0.0122648) (28.102 0.00801973 0.104447)
227           (30.2296 -0.0259168 -0.0109778) (30.1117 0.00355285 -0.0122834) (28.1015 0.00802495 0.104466)
228           (30.2296 -0.025917 -0.0109785) (30.1117 0.00355307 -0.0123009) (28.101 0.00802924 0.104491)
229           (30.2296 -0.0259172 -0.0109787) (30.1117 0.00355311 -0.0123171) (28.1007 0.00803285 0.104519)
230           (30.2296 -0.0259175 -0.010979) (30.1117 0.00355293 -0.0123318) (28.1003 0.00803608 0.104551)
231           (30.2296 -0.0259177 -0.0109798) (30.1117 0.00355255 -0.0123456) (28.1 0.0080392 0.104583)
232           (30.2296 -0.0259178 -0.0109808) (30.1118 0.00355199 -0.012359) (28.0998 0.0080425 0.104613)
233           (30.2296 -0.0259178 -0.0109815) (30.1118 0.00355132 -0.0123727) (28.0995 0.00804617 0.104638)
234           (30.2297 -0.025918 -0.0109818) (30.1118 0.00355055 -0.0123872) (28.0992 0.00805037 0.104655)
235           (30.2297 -0.0259182 -0.0109816) (30.1119 0.00354975 -0.0124026) (28.099 0.00805519 0.104664)
236           (30.2297 -0.0259185 -0.0109817) (30.1119 0.003549 -0.0124189) (28.0987 0.00806063 0.104665)
237           (30.2297 -0.0259188 -0.0109823) (30.1119 0.00354839 -0.0124361) (28.0984 0.00806659 0.104661)
238           (30.2297 -0.0259191 -0.010983) (30.112 0.00354802 -0.0124542) (28.0981 0.00807285 0.104653)
239           (30.2297 -0.0259193 -0.0109832) (30.112 0.00354792 -0.0124732) (28.0977 0.00807908 0.104644)
240           (30.2297 -0.0259196 -0.0109829) (30.112 0.00354804 -0.0124928) (28.0975 0.00808493 0.104636)
241           (30.2297 -0.0259199 -0.0109824) (30.112 0.0035483 -0.0125128) (28.0972 0.00809005 0.10463)
242           (30.2297 -0.0259203 -0.0109821) (30.112 0.00354863 -0.0125331) (28.0969 0.00809418 0.104626)
243           (30.2297 -0.0259207 -0.0109821) (30.112 0.003549 -0.0125533) (28.0967 0.00809716 0.104624)
244           (30.2297 -0.0259212 -0.0109824) (30.112 0.00354943 -0.0125731) (28.0965 0.00809902 0.104623)
245           (30.2297 -0.0259218 -0.010983) (30.112 0.00354997 -0.012592) (28.0963 0.00809986 0.10462)
246           (30.2297 -0.0259223 -0.0109837) (30.112 0.00355066 -0.0126097) (28.0962 0.00809988 0.104617)
247           (30.2297 -0.0259228 -0.010985) (30.112 0.00355149 -0.012626) (28.0961 0.00809931 0.104611)
248           (30.2297 -0.0259231 -0.0109871) (30.112 0.00355239 -0.012641) (28.096 0.00809836 0.104601)
249           (30.2297 -0.0259233 -0.0109894) (30.112 0.00355328 -0.0126549) (28.0959 0.00809726 0.104589)
250           (30.2297 -0.0259235 -0.0109918) (30.112 0.00355404 -0.0126682) (28.0959 0.00809622 0.104574)
251           (30.2297 -0.0259238 -0.0109938) (30.112 0.0035546 -0.0126809) (28.0958 0.00809542 0.104557)
252           (30.2297 -0.0259242 -0.010995) (30.112 0.00355491 -0.012693) (28.0958 0.00809504 0.104538)
253           (30.2297 -0.0259247 -0.0109962) (30.1121 0.003555 -0.0127045) (28.0958 0.00809518 0.104519)
254           (30.2297 -0.0259251 -0.0109979) (30.1121 0.00355496 -0.0127155) (28.0958 0.00809593 0.104498)
255           (30.2297 -0.0259256 -0.0110007) (30.1121 0.00355493 -0.0127257) (28.0957 0.00809729 0.104477)
256           (30.2298 -0.025926 -0.0110043) (30.1122 0.00355499 -0.0127354) (28.0957 0.00809921 0.104455)
257           (30.2298 -0.0259264 -0.0110084) (30.1122 0.0035552 -0.0127448) (28.0956 0.00810157 0.104432)
258           (30.2298 -0.0259268 -0.0110125) (30.1122 0.00355555 -0.0127541) (28.0955 0.00810423 0.104408)
259           (30.2298 -0.0259272 -0.0110165) (30.1122 0.00355605 -0.0127636) (28.0954 0.00810702 0.104382)
260           (30.2298 -0.0259276 -0.01102) (30.1123 0.00355666 -0.012773) (28.0953 0.00810981 0.104355)
261           (30.2298 -0.0259281 -0.0110226) (30.1123 0.00355738 -0.0127822) (28.0952 0.00811245 0.104328)
262           (30.2298 -0.0259287 -0.0110243) (30.1123 0.00355821 -0.0127909) (28.0951 0.00811483 0.104302)
263           (30.2298 -0.0259292 -0.0110251) (30.1123 0.00355914 -0.0127988) (28.095 0.00811687 0.104278)
264           (30.2298 -0.0259297 -0.0110254) (30.1123 0.00356017 -0.0128058) (28.0949 0.00811852 0.104256)
265           (30.2298 -0.0259301 -0.0110252) (30.1123 0.00356126 -0.0128118) (28.0948 0.00811977 0.104236)
266           (30.2298 -0.0259304 -0.0110247) (30.1122 0.00356235 -0.0128166) (28.0948 0.00812062 0.104219)
267           (30.2298 -0.0259307 -0.0110238) (30.1122 0.00356336 -0.0128206) (28.0947 0.00812111 0.104205)
268           (30.2298 -0.0259309 -0.0110226) (30.1122 0.00356422 -0.0128243) (28.0947 0.00812128 0.104193)
269           (30.2298 -0.0259311 -0.011022) (30.1122 0.00356492 -0.0128282) (28.0947 0.0081212 0.104182)
270           (30.2298 -0.0259314 -0.011022) (30.1122 0.00356548 -0.0128325) (28.0947 0.00812094 0.104171)
271           (30.2298 -0.0259316 -0.0110223) (30.1122 0.00356593 -0.0128371) (28.0947 0.00812058 0.104161)
272           (30.2298 -0.0259319 -0.0110224) (30.1122 0.00356632 -0.0128418) (28.0947 0.00812019 0.104149)
273           (30.2298 -0.0259322 -0.0110221) (30.1122 0.00356671 -0.012846) (28.0947 0.00811983 0.104137)
274           (30.2298 -0.0259325 -0.0110212) (30.1122 0.00356712 -0.0128496) (28.0947 0.00811955 0.104123)
275           (30.2298 -0.0259327 -0.0110201) (30.1122 0.00356754 -0.0128524) (28.0948 0.00811939 0.104108)
276           (30.2298 -0.0259328 -0.0110187) (30.1122 0.00356792 -0.0128545) (28.0948 0.00811936 0.104093)
277           (30.2298 -0.0259328 -0.0110176) (30.1122 0.00356822 -0.0128561) (28.0948 0.00811945 0.104077)